3
Time Step: 20
Ar	-0.004893494405602426	-0.0023537149897669436	-0.002353714989766946
Ne	0.7759761589675072	-0.004216201009382303	0.7506875630579724
Ne	0.7759761589675072	0.7506875630579724	-0.004216201009382303
3
Time Step: 40
Ar	-0.01669837627014893	-0.008031728510166682	-0.00803172851016669
Ne	0.7818785998997804	-0.01434016315766703	0.7664895387266567
Ne	0.7818785998997804	0.7664895387266567	-0.01434016315766703
3
Time Step: 60
Ar	-0.030119416752246393	-0.014487095890339034	-0.014487095890339046
Ne	0.7885891201408293	-0.026049887421095902	0.7846546303702581
Ne	0.7885891201408293	0.7846546303702581	-0.026049887421095902
3
Time Step: 80
Ar	-0.04138741325057179	-0.01990687367375411	-0.019906873673754124
Ne	0.7942231183899919	-0.036631210057345084	0.8006557307899222
Ne	0.794223118389992	0.8006557307899222	-0.036631210057345084
3
Time Step: 100
Ar	-0.048659212792654415	-0.0234045263052121	-0.023404526305212118
Ne	0.7978590181610331	-0.0449459174003307	0.8124680907643659
Ne	0.7978590181610332	0.8124680907643659	-0.0449459174003307
3
Time Step: 120
Ar	-0.05119296890806952	-0.024623234094565762	-0.02462323409456578
Ne	0.7991258962187406	-0.050607509714736695	0.8193483908681253
Ne	0.7991258962187407	0.8193483908681253	-0.050607509714736695
3
Time Step: 140
Ar	-0.04876313891818701	-0.023454513586124187	-0.023454513586124204
Ne	0.7979109812237994	-0.05350469431820491	0.8210768549631521
Ne	0.7979109812237996	0.8210768549631521	-0.05350469431820491
3
Time Step: 160
Ar	-0.04143546147970495	-0.01992998432388853	-0.019929984323888546
Ne	0.7942471425045583	-0.053610076820042936	0.8176577082027545
Ne	0.7942471425045584	0.8176577082027545	-0.053610076820042936
3
Time Step: 180
Ar	-0.02961706737953132	-0.014245471572284106	-0.014245471572284129
Ne	0.7883379454544714	-0.05093101475107242	0.8092941333821794
Ne	0.7883379454544716	0.8092941333821794	-0.05093101475107242
3
Time Step: 200
Ar	-0.014410540988961726	-0.00693130583689608	-0.0069313058368961076
Ne	0.7807346822591869	-0.045554151592819565	0.7966031044885387
Ne	0.780734682259187	0.7966031044885387	-0.045554151592819565
3
Time Step: 220
Ar	0.0016049547660399685	0.0007719649349963645	0.0007719649349963295
Ne	0.7727269343816858	-0.03780739902923631	0.7811530811530629
Ne	0.7727269343816859	0.7811530811530629	-0.03780739902923631
3
Time Step: 240
Ar	0.01342016397809397	0.006454945791744768	0.006454945791744722
Ne	0.7668193297756588	-0.028571981155370758	0.766234682422449
Ne	0.7668193297756589	0.766234682422449	-0.028571981155370758
3
Time Step: 260
Ar	0.014546809983257752	0.006996849668753207	0.006996849668753136
Ne	0.7662560067730769	-0.019531963255123408	0.7566527606451934
Ne	0.7662560067730769	0.7566527606451934	-0.019531963255123408
3
Time Step: 280
Ar	0.002352162671927163	0.0011313634144440076	0.001131363414443918
Ne	0.7723533304287421	-0.012674398199971702	0.755660681844351
Ne	0.7723533304287421	0.755660681844351	-0.012674398199971702
3
Time Step: 300
Ar	-0.01853866608831944	-0.008916886920807693	-0.008916886920807793
Ne	0.7827987448088654	-0.009021811070060354	0.7620563450496913
Ne	0.7827987448088654	0.7620563450496913	-0.009021811070060354
3
Time Step: 320
Ar	-0.04121694921821971	-0.01982488241864948	-0.019824882418649586
Ne	0.7941378863738155	-0.008112395390205794	0.7720549248676787
Ne	0.7941378863738155	0.7720549248676787	-0.008112395390205794
3
Time Step: 340
Ar	-0.06119044002381735	-0.029431903661646084	-0.02943190366164619
Ne	0.8041246317766145	-0.0087186996871417	0.782268250407611
Ne	0.8041246317766145	0.782268250407611	-0.0087186996871417
3
Time Step: 360
Ar	-0.07646994411052821	-0.03678117083643288	-0.036781170836432994
Ne	0.8117643838199702	-0.009674729224070089	0.790573547119326
Ne	0.8117643838199702	0.790573547119326	-0.009674729224070089
3
Time Step: 380
Ar	-0.08635936195219313	-0.0415378680112261	-0.04153786801122621
Ne	0.8167090927408024	-0.010196343578565593	0.7958518586486149
Ne	0.8167090927408024	0.7958518586486149	-0.010196343578565593
3
Time Step: 400
Ar	-0.09066580353064015	-0.043609217287551405	-0.04360921728755151
Ne	0.8188623135300258	-0.009880307154082444	0.7976071715004569
Ne	0.8188623135300259	0.7976071715004569	-0.009880307154082444
3
Time Step: 420
Ar	-0.0893513448488172	-0.042976977655419864	-0.042976977655419954
Ne	0.8182050841891143	-0.0086398980613095	0.7957345227755523
Ne	0.8182050841891144	0.7957345227755523	-0.008639898061309501
3
Time Step: 440
Ar	-0.08242452754143462	-0.03964525754369405	-0.039645257543694135
Ne	0.8147416755354229	-0.00668520197660519	0.790448106579122
Ne	0.814741675535423	0.790448106579122	-0.006685201976605192
3
Time Step: 460
Ar	-0.0699829941940659	-0.03366102192224106	-0.033661021922241144
Ne	0.8085209088617384	-0.004567403360673951	0.7823460723417377
Ne	0.8085209088617386	0.7823460723417377	-0.004567403360673954
3
Time Step: 480
Ar	-0.05243704240290605	-0.02522161925462998	-0.025221619254630047
Ne	0.7997479329661583	-0.003249244436734022	0.7725885107501864
Ne	0.7997479329661584	0.7725885107501864	-0.003249244436734026
3
Time Step: 500
Ar	-0.03105165773005031	-0.014935493166735507	-0.01493549316673557
Ne	0.7890552406297303	-0.0040601049761005295	0.7631132452016586
Ne	0.7890552406297304	0.7631132452016586	-0.0040601049761005365
3
Time Step: 520
Ar	-0.00891576751626911	-0.0042883824745556035	-0.0042883824745556616
Ne	0.7779872955228399	-0.008270636178678797	0.7566766657120568
Ne	0.77798729552284	0.7566766657120568	-0.008270636178678807
3
Time Step: 540
Ar	0.008374907740515816	0.004028235091920769	0.004028235091920709
Ne	0.7693419578944471	-0.01623537612390721	0.7563247880908087
Ne	0.7693419578944473	0.7563247880908087	-0.016235376123907224
3
Time Step: 560
Ar	0.014910354691900614	0.007171710526712285	0.00717171052671222
Ne	0.7660742344187548	-0.0268350198856312	0.763780956417741
Ne	0.766074234418755	0.763780956417741	-0.026835019885631212
3
Time Step: 580
Ar	0.009698727736802767	0.004664977409526417	0.004664977409526325
Ne	0.7686800478963035	-0.038033276525929395	0.777485946175225
Ne	0.7686800478963037	0.777485946175225	-0.0380332765259294
3
Time Step: 600
Ar	-0.002596390205814921	-0.0012488340723790783	-0.0012488340723792
Ne	0.7748276068676122	-0.04800299373368799	0.7933694748648891
Ne	0.7748276068676124	0.793369474864889	-0.048002993733688
3
Time Step: 620
Ar	-0.016466820503213613	-0.007920352827591789	-0.007920352827591941
Ne	0.7817628220163114	-0.05569314599378584	0.8077311458801996
Ne	0.7817628220163116	0.8077311458801995	-0.05569314599378584
3
Time Step: 640
Ar	-0.028382864953898256	-0.013651834283909724	-0.013651834283909902
Ne	0.7877208442416538	-0.0606832751522881	0.8184527564950197
Ne	0.787720844241654	0.8184527564950194	-0.0606832751522881
3
Time Step: 660
Ar	-0.03661007765887302	-0.01760902974846986	-0.017609029748470055
Ne	0.7918344505941415	-0.06286075715956885	0.8245874339668607
Ne	0.7918344505941417	0.8245874339668604	-0.06286075715956885
3
Time Step: 680
Ar	-0.04041661854800239	-0.01943993249552262	-0.019439932495522817
Ne	0.7937377210387062	-0.0622139722102506	0.8257715517645952
Ne	0.7937377210387064	0.8257715517645948	-0.0622139722102506
3
Time Step: 700
Ar	-0.0395823649369691	-0.019038666024816544	-0.019038666024816738
Ne	0.7933205942331898	-0.05874546222217664	0.8219017753058151
Ne	0.79332059423319	0.8219017753058148	-0.05874546222217664
3
Time Step: 720
Ar	-0.03423617195043533	-0.016467208181483797	-0.016467208181483988
Ne	0.790647497739923	-0.05246167064633366	0.8130465258866393
Ne	0.7906474977399233	0.813046525886639	-0.05246167064633366
3
Time Step: 740
Ar	-0.024966438590531565	-0.012008572173773475	-0.01200857217377365
Ne	0.7860126310599713	-0.04343655231251172	0.7995627715451068
Ne	0.7860126310599715	0.7995627715451065	-0.04343655231251172
3
Time Step: 760
Ar	-0.013244399958850801	-0.006370405303402355	-0.006370405303402502
Ne	0.780151611744131	-0.032011431311803895	0.7824994836740278
Ne	0.7801516117441312	0.7824994836740274	-0.032011431311803895
3
Time Step: 780
Ar	-0.002156125895892304	-0.0010370719613330176	-0.0010370719613331184
Ne	0.7746074747126517	-0.019271343816046373	0.7644260628362008
Ne	0.7746074747126519	0.7644260628362005	-0.01927134381604636
3
Time Step: 800
Ar	0.003337723824945833	0.0016054070869027598	0.0016054070869027186
Ne	0.7718605498522325	-0.007799654046207812	0.7503118940181263
Ne	0.7718605498522328	0.7503118940181259	-0.007799654046207797
3
Time Step: 820
Ar	-0.0010875401819859186	-0.0005230944221348165	-0.0005230944221347923
Ne	0.7740731818556984	-0.0015423961069766078	0.7461831375879324
Ne	0.7740731818556988	0.7461831375879321	-0.0015423961069765842
3
Time Step: 840
Ar	-0.014542964517126888	-0.0069950000434099	-0.006995000043409825
Ne	0.7808008940232689	-0.00275144969926989	0.7538640968015007
Ne	0.7808008940232695	0.7538640968015005	-0.0027514496992698625
3
Time Step: 860
Ar	-0.031638425786627664	-0.01521772190877819	-0.015217721908778091
Ne	0.7893486246580191	-0.00945241710223475	0.7687877860698337
Ne	0.7893486246580199	0.7687877860698334	-0.00945241710223472
3
Time Step: 880
Ar	-0.04745440099934294	-0.02282502557573063	-0.02282502557573052
Ne	0.7972566122643767	-0.018026973037404883	0.7849696456719562
Ne	0.7972566122643775	0.7849696456719559	-0.018026973037404852
3
Time Step: 900
Ar	-0.05938214750714825	-0.028562135588040057	-0.028562135588039952
Ne	0.8032204855182792	-0.025972811707686456	0.7986525943545469
Ne	0.80322048551828	0.7986525943545466	-0.025972811707686415
3
Time Step: 920
Ar	-0.06637000431676486	-0.031923215004072386	-0.031923215004072296
Ne	0.8067144139230875	-0.032085002237962436	0.8081258643008551
Ne	0.8067144139230883	0.8081258643008548	-0.032085002237962394
3
Time Step: 940
Ar	-0.06806756870572413	-0.032739724111309494	-0.032739724111309404
Ne	0.807563196117567	-0.035870751323590654	0.8127281224937204
Ne	0.8075631961175678	0.8127281224937201	-0.035870751323590605
3
Time Step: 960
Ar	-0.06440260157748837	-0.030976916728336815	-0.03097691672833673
Ne	0.8057307125534493	-0.03715477220439736	0.8122493359915542
Ne	0.8057307125534499	0.8122493359915539	-0.037154772204397314
3
Time Step: 980
Ar	-0.0554641095544767	-0.026677604025253276	-0.026677604025253203
Ne	0.8012614665419433	-0.03591486957589047	0.8067101206599636
Ne	0.8012614665419439	0.8067101206599633	-0.03591486957589042
3
Time Step: 1000
Ar	-0.04161802875244561	-0.020017797099561523	-0.02001779709956147
Ne	0.7943384261409274	-0.0322686925766484	0.7964041367350297
Ne	0.794338426140928	0.7964041367350294	-0.03226869257664834
3
Time Step: 1020
Ar	-0.0239433636430322	-0.011516484794083221	-0.011516484794083185
Ne	0.7855010935862207	-0.026600384973923245	0.7822345168268262
Ne	0.7855010935862211	0.7822345168268258	-0.02660038497392318
3
Time Step: 1040
Ar	-0.0051979035297554915	-0.002500132306138356	-0.002500132306138336
Ne	0.7761283635295825	-0.019870640868192502	0.7664884202331503
Ne	0.7761283635295827	0.7664884202331499	-0.019870640868192426
3
Time Step: 1060
Ar	0.00898539957782803	0.004321874701881832	0.004321874701881848
Ne	0.7690367119757907	-0.014005672112712213	0.7538014444696499
Ne	0.7690367119757909	0.7538014444696495	-0.014005672112712133
3
Time Step: 1080
Ar	0.011507690178698134	0.005535067709524644	0.005535067709524679
Ne	0.7677755666753557	-0.011517719662980097	0.7501002990122749
Ne	0.767775566675356	0.7501002990122743	-0.011517719662980017
3
Time Step: 1100
Ar	0.00046308760506096514	0.00022273985566487734	0.00022273985566498657
Ne	0.7732978679621744	-0.013457124724331967	0.7573520319274865
Ne	0.7732978679621746	0.7573520319274859	-0.013457124724331897
3
Time Step: 1120
Ar	-0.018355300945894822	-0.008828690378920402	-0.008828690378920194
Ne	0.7827070622376521	-0.018261756565043665	0.7712080940027833
Ne	0.7827070622376523	0.7712080940027829	-0.018261756565043606
3
Time Step: 1140
Ar	-0.038062211147652465	-0.018307489392313435	-0.01830748939231312
Ne	0.792560517338531	-0.023562009948205773	0.7859871463993383
Ne	0.7925605173385312	0.785987146399338	-0.02356200994820572
3
Time Step: 1160
Ar	-0.05470638898968378	-0.026313149076788663	-0.02631314907678825
Ne	0.8008826062595467	-0.02774435196546847	0.7981751481010761
Ne	0.800882606259547	0.7981751481010758	-0.02774435196546843
3
Time Step: 1180
Ar	-0.06664718600642464	-0.03205653623503103	-0.03205653623503052
Ne	0.806853004767917	-0.03001560681382704	0.8061897901076766
Ne	0.8068530047679173	0.8061897901076762	-0.030015606813827003
3
Time Step: 1200
Ar	-0.07331423507860978	-0.035263310788762756	-0.035263310788762145
Ne	0.8101865293040096	-0.03005561355421111	0.8094365714017919
Ne	0.8101865293040099	0.8094365714017916	-0.03005561355421107
3
Time Step: 1220
Ar	-0.07454029052380233	-0.03585302947247712	-0.03585302947247643
Ne	0.8107995570266058	-0.027791344836207214	0.8077620213675023
Ne	0.8107995570266061	0.8077620213675022	-0.027791344836207172
3
Time Step: 1240
Ar	-0.07031063663160812	-0.033818614197334354	-0.03381861419733359
Ne	0.8086847300805087	-0.02333221895293147	0.8012684802090835
Ne	0.808684730080509	0.8012684802090834	-0.02333221895293143
3
Time Step: 1260
Ar	-0.060751587032987185	-0.029220820378986358	-0.029220820378985504
Ne	0.8039052052811981	-0.01704949166708113	0.7903879591048847
Ne	0.8039052052811985	0.7903879591048847	-0.017049491667081085
3
Time Step: 1280
Ar	-0.04634322900509286	-0.022290564521463118	-0.0222905645214622
Ne	0.7967010262672511	-0.009832002958917544	0.7762402145391978
Ne	0.7967010262672515	0.7762402145391978	-0.009832002958917495
3
Time Step: 1300
Ar	-0.02848099678607494	-0.013699034575813862	-0.013699034575812914
Ne	0.7877699101577422	-0.0035268853117440243	0.7613435669463752
Ne	0.7877699101577426	0.7613435669463752	-0.003526885311743968
3
Time Step: 1320
Ar	-0.010433978854976248	-0.0050186248104755506	-0.005018624810474616
Ne	0.7787464011921932	-0.0011252287206697988	0.7502615005899628
Ne	0.7787464011921935	0.7502615005899628	-0.0011252287206697353
3
Time Step: 1340
Ar	0.0023429814755323206	0.0011269473637044406	0.001126947363705271
Ne	0.7723579210269389	-0.005306862117186185	0.7482975618122989
Ne	0.7723579210269391	0.7482975618122988	-0.0053068621171861174
3
Time Step: 1360
Ar	0.005193582615320845	0.0024980539955799697	0.0024980539955806033
Ne	0.7709326204570445	-0.015587134443302283	0.7572067275065398
Ne	0.7709326204570444	0.7572067275065394	-0.015587134443302219
3
Time Step: 1380
Ar	-0.0012374216697204718	-0.0005951857080615106	-0.0005951857080610893
Ne	0.7741481225995653	-0.028573310563479695	0.7732861433303588
Ne	0.7741481225995649	0.7732861433303582	-0.028573310563479653
3
Time Step: 1400
Ar	-0.012173402718892909	-0.005855267847682435	-0.005855267847682178
Ne	0.7796161131241516	-0.04111548005597907	0.7910883949624793
Ne	0.7796161131241509	0.7910883949624783	-0.041115480055979044
3
Time Step: 1420
Ar	-0.023094721947720293	-0.011108297818962519	-0.01110829781896236
Ne	0.7850767727385651	-0.051589416785296	0.8068153616630765
Ne	0.7850767727385644	0.8068153616630752	-0.051589416785295994
3
Time Step: 1440
Ar	-0.03134565150162147	-0.015076900817321846	-0.015076900817321727
Ne	0.7892022375155158	-0.05940489589759784	0.8185994437737376
Ne	0.7892022375155149	0.8185994437737362	-0.05940489589759786
3
Time Step: 1460
Ar	-0.03567605316624406	-0.017159774621788644	-0.017159774621788523
Ne	0.7913674383478272	-0.06441166871190647	0.8256890903925129
Ne	0.7913674383478262	0.8256890903925114	-0.0644116687119065
3
Time Step: 1480
Ar	-0.03560138003245879	-0.01712385769622277	-0.01712385769622262
Ne	0.7913301017809345	-0.06659609479040528	0.8278375995454459
Ne	0.7913301017809335	0.8278375995454442	-0.0665960947904053
3
Time Step: 1500
Ar	-0.031071062707042078	-0.014944826739320882	-0.014944826739320662
Ne	0.7890649431182262	-0.06596317691561539	0.8250256507137539
Ne	0.7890649431182252	0.8250256507137523	-0.0659631769156154
3
Time Step: 1520
Ar	-0.022425261584083114	-0.010786295020483285	-0.01078629502048296
Ne	0.7847420425567467	-0.06250807785580559	0.8174120199351065
Ne	0.7847420425567458	0.817412019935105	-0.0625080778558056
3
Time Step: 1540
Ar	-0.010625705350576258	-0.005110843067865068	-0.0051108430678645945
Ne	0.7788422644399935	-0.05624711755274304	0.8054756076794256
Ne	0.7788422644399926	0.8054756076794243	-0.056247117552743045
3
Time Step: 1560
Ar	0.002192766602594199	0.0010546957232985318	0.0010546957232992287
Ne	0.7724330284634082	-0.04732773322761882	0.7903906845631374
Ne	0.7724330284634076	0.7903906845631361	-0.04732773322761883
3
Time Step: 1580
Ar	0.012034122535858872	0.005788275668385726	0.005788275668386746
Ne	0.7675123504967758	-0.036262926196065824	0.7745922975864971
Ne	0.7675123504967752	0.7745922975864958	-0.03626292619606583
3
Time Step: 1600
Ar	0.013507499711547313	0.006496953283307894	0.006496953283309299
Ne	0.7667756619089312	-0.02425529097622259	0.761875984751731
Ne	0.7667756619089313	0.7618759847517306	-0.024255290976222598
3
Time Step: 1620
Ar	0.0034097470207746358	0.0016400494225368256	0.0016400494225385237
Ne	0.7718245382543175	-0.013280781705504596	0.7557583793417837
Ne	0.7718245382543176	0.7557583793417835	-0.013280781705504606
3
Time Step: 1640
Ar	-0.01564276620793913	-0.007523992111426373	-0.007523992111424536
Ne	0.7813507948686744	-0.00544619218316651	0.7570878313534084
Ne	0.7813507948686744	0.7570878313534087	-0.005446192183166544
3
Time Step: 1660
Ar	-0.0376665292482716	-0.01811717091219472	-0.018117170912192865
Ne	0.7923626763888407	-0.0018071657790153135	0.7640419837500256
Ne	0.7923626763888407	0.764041983750026	-0.0018071657790153725
3
Time Step: 1680
Ar	-0.05786218699716555	-0.027831051920693177	-0.027831051920691362
Ne	0.8024605052632879	-0.0018219734505911754	0.7737706724301
Ne	0.8024605052632878	0.7737706724301002	-0.0018219734505912563
3
Time Step: 1700
Ar	-0.07376678891980552	-0.0354809840241683	-0.03548098402416657
Ne	0.8104128062246079	-0.00402388080099578	0.7836225118839798
Ne	0.8104128062246075	0.7836225118839798	-0.0040238808009958795
3
Time Step: 1720
Ar	-0.08441588153887715	-0.04060307610140237	-0.04060307610140074
Ne	0.8157373525341439	-0.006960905521639021	0.7916816286818572
Ne	0.8157373525341435	0.7916816286818571	-0.006960905521639134
3
Time Step: 1740
Ar	-0.08951332388410001	-0.04305488772372437	-0.04305488772372284
Ne	0.8182860737067557	-0.00961649218872671	0.7967890269712672
Ne	0.8182860737067545	0.796789026971267	-0.00961649218872683
3
Time Step: 1760
Ar	-0.08899691427941094	-0.04280650059447277	-0.042806500594471344
Ne	0.8180278689044108	-0.011420534598548608	0.7983446822518373
Ne	0.8180278689044096	0.7983446822518371	-0.011420534598548727
3
Time Step: 1780
Ar	-0.08287170318847102	-0.03986034392905869	-0.039860343929057386
Ne	0.8149652633589407	-0.012154662761161204	0.796132653749036
Ne	0.8149652633589393	0.7961326537490355	-0.012154662761161318
3
Time Step: 1800
Ar	-0.07120696754045228	-0.03424973914018274	-0.03424973914018155
Ne	0.8091328955349314	-0.011898169246083064	0.790265555445082
Ne	0.8091328955349298	0.7902655554450814	-0.011898169246083163
3
Time Step: 1820
Ar	-0.054301466700949465	-0.02611838607479448	-0.02611838607479341
Ne	0.80068014511518	-0.011049761405913799	0.7812857945395247
Ne	0.8006801451151783	0.7812857945395235	-0.011049761405913875
3
Time Step: 1840
Ar	-0.033149015588879	-0.01594429837260087	-0.015944298372599888
Ne	0.790103919559145	-0.010405152457160604	0.7704670978885781
Ne	0.790103919559143	0.7704670978885767	-0.010405152457160659
3
Time Step: 1860
Ar	-0.01042801424355046	-0.005015755900418146	-0.005015755900417183
Ne	0.7787434188864811	-0.011172849307629795	0.7603062522668645
Ne	0.7787434188864791	0.7603062522668631	-0.01117284930762984
3
Time Step: 1880
Ar	0.008295524867009114	0.003990052835269155	0.003990052835270267
Ne	0.7693816493312012	-0.01462333523589405	0.7547509294594412
Ne	0.7693816493311995	0.7547509294594398	-0.014623335235894092
3
Time Step: 1900
Ar	0.015858235891608688	0.00762763057143564	0.0076276305714371466
Ne	0.765600293818901	-0.021147765957160575	0.7576377824445408
Ne	0.7656002938188997	0.7576377824445398	-0.021147765957160617
3
Time Step: 1920
Ar	0.009728898982134826	0.004679489434368995	0.004679489434371041
Ne	0.7686649622736378	-0.029539843353401995	0.7689780009778484
Ne	0.7686649622736368	0.7689780009778479	-0.029539843353402075
3
Time Step: 1940
Ar	-0.005187734113772607	-0.0024952409330544784	-0.002495240933051922
Ne	0.7761232788215912	-0.03777676076545978	0.7843896487573291
Ne	0.7761232788215905	0.784389648757329	-0.03777676076545992
3
Time Step: 1960
Ar	-0.022255134557942403	-0.010704465861524246	-0.010704465861521295
Ne	0.7846569790436759	-0.04432730575252574	0.7991494186728643
Ne	0.7846569790436757	0.7991494186728649	-0.0443273057525259
3
Time Step: 1980
Ar	-0.037259509912111244	-0.017921399254309085	-0.01792139925430585
Ne	0.7921591667207601	-0.04845285591195507	0.8104919022250782
Ne	0.7921591667207599	0.8104919022250788	-0.048452855911955264
3
Time Step: 2000
Ar	-0.04824237343843256	-0.023204031330657713	-0.02320403133065429
Ne	0.797650598483921	-0.04989084716228093	0.8172125255517525
Ne	0.7976505984839207	0.8172125255517532	-0.04989084716228113
3
Time Step: 2020
Ar	-0.054421710272390185	-0.026176221861059498	-0.026176221861055938
Ne	0.8007402669008996	-0.04857563089130579	0.8188694998111791
Ne	0.8007402669008994	0.8188694998111797	-0.048575630891305996
3
Time Step: 2040
Ar	-0.05553611644638987	-0.02671223851889594	-0.0267122385188923
Ne	0.8012974699878995	-0.04451460648453958	0.815344492062249
Ne	0.8012974699878994	0.8153444920622497	-0.0445146064845398
3
Time Step: 2060
Ar	-0.05159344598820884	-0.024815859001938206	-0.024815859001934514
Ne	0.7993261347588089	-0.03777852594826369	0.8067120320090154
Ne	0.7993261347588088	0.806712032009016	-0.03777852594826391
3
Time Step: 2080
Ar	-0.042895475422382534	-0.020632234376170056	-0.02063223437616639
Ne	0.7949771494758957	-0.028606372228793548	0.7933562536637773
Ne	0.7949771494758956	0.7933562536637776	-0.028606372228793753
3
Time Step: 2100
Ar	-0.030348408360337916	-0.014597238241764529	-0.014597238241760973
Ne	0.7887036159448735	-0.01771276076560939	0.7764276460661876
Ne	0.7887036159448733	0.776427646066188	-0.017712760765609566
3
Time Step: 2120
Ar	-0.016153636788075035	-0.007769715033052432	-0.007769715033049111
Ne	0.7816062301587421	-0.006948266838052284	0.7588356289299185
Ne	0.7816062301587416	0.7588356289299187	-0.006948266838052424
3
Time Step: 2140
Ar	-0.004556790985102912	-0.002191764485234867	-0.0021917644852319364
Ne	0.7758078072572562	-2.636986988185252e-06	0.7463120485310373
Ne	0.7758078072572554	0.7463120485310369	-2.6369869882973587e-06
3
Time Step: 2160
Ar	-0.0006840177343033179	-0.00032900472772077127	-0.00032900472771835713
Ne	0.7738714206318567	-0.0009520203900494463	0.7453986721765852
Ne	0.7738714206318552	0.745398672176584	-0.0009520203900495519
3
Time Step: 2180
Ar	-0.006082656681581844	-0.0029256884799287023	-0.002925688479926764
Ne	0.7765707401054961	-0.009785044154960515	0.7568283796937045
Ne	0.7765707401054941	0.756828379693703	-0.00978504415496065
3
Time Step: 2200
Ar	-0.017042582674075397	-0.00819728786415078	-0.008197287864149187
Ne	0.7820507031017431	-0.0223140083848098	0.7746289433077761
Ne	0.782050703101741	0.7746289433077742	-0.022314008384809982
3
Time Step: 2220
Ar	-0.0286868612828496	-0.01379805305050031	-0.013798053050498933
Ne	0.7878728424061303	-0.03474732384407586	0.7926630239533916
Ne	0.7878728424061279	0.7926630239533896	-0.03474732384407609
3
Time Step: 2240
Ar	-0.03785631576888728	-0.018208456063746572	-0.018208456063745326
Ne	0.7924575696491492	-0.045244150918102875	0.8075702540406651
Ne	0.7924575696491465	0.8075702540406628	-0.04524415091810317
3
Time Step: 2260
Ar	-0.04303602941615357	-0.020699839243895585	-0.020699839243894423
Ne	0.7950474264727823	-0.05314806934203381	0.8179655556447449
Ne	0.7950474264727793	0.8179655556447427	-0.053148069342034136
3
Time Step: 2280
Ar	-0.043622277168096614	-0.020981817725343493	-0.020981817725342376
Ne	0.7953405503487536	-0.05827471686512579	0.8233741816492849
Ne	0.7953405503487506	0.8233741816492827	-0.05827471686512614
3
Time Step: 2300
Ar	-0.03947359503212826	-0.01898634894131311	-0.018986348941312004
Ne	0.7932662092807694	-0.06058633881023691	0.8236903348103655
Ne	0.7932662092807663	0.8236903348103632	-0.06058633881023727
3
Time Step: 2320
Ar	-0.03077997732428297	-0.014804817990581472	-0.014804817990580338
Ne	0.7889194004268468	-0.06007559499335977	0.8189980600427567
Ne	0.7889194004268437	0.8189980600427544	-0.06007559499336013
3
Time Step: 2340
Ar	-0.01820452608601982	-0.00875616939118881	-0.00875616939118757
Ne	0.7826316748077151	-0.05674966728983489	0.809623483739839
Ne	0.7826316748077122	0.8096234837398367	-0.056749667289835236
3
Time Step: 2360
Ar	-0.0033527508746731285	-0.0016126349264157082	-0.0016126349264142547
Ne	0.7752057872020418	-0.05069148761219722	0.7964217695974278
Ne	0.775205787202039	0.7964217695974258	-0.05069148761219754
3
Time Step: 2380
Ar	0.010408205911080451	0.005006228318442751	0.0050062283184445795
Ne	0.7683253088091645	-0.042223096296131774	0.7813345150365035
Ne	0.7683253088091626	0.781334515036502	-0.042223096296132086
3
Time Step: 2400
Ar	0.01753672493267235	0.008434964653922981	0.00843496465392531
Ne	0.7647610492983683	-0.03216148892734113	0.767844171332232
Ne	0.764761049298367	0.7678441713322314	-0.03216148892734144
3
Time Step: 2420
Ar	0.012755197372571588	0.006135104439653675	0.006135104439656487
Ne	0.7671518130784186	-0.021928342727062167	0.759910885346222
Ne	0.7671518130784175	0.7599108853462218	-0.021928342727062497
3
Time Step: 2440
Ar	-0.0037931738575739055	-0.0018244733573557542	-0.0018244733573525881
Ne	0.7754259986934909	-0.013149332493981869	0.7590914529101508
Ne	0.7754259986934899	0.7590914529101509	-0.01314933249398224
3
Time Step: 2460
Ar	-0.026359601064456742	-0.012678667432149416	-0.012678667432146067
Ne	0.7867092122969325	-0.006950883891154689	0.7637471983821171
Ne	0.7867092122969316	0.7637471983821174	-0.00695088389115512
3
Time Step: 2480
Ar	-0.048939760895176786	-0.02353946674236282	-0.02353946674235939
Ne	0.7979992922122925	-0.0035531356369662417	0.7712102494381423
Ne	0.7979992922122916	0.7712102494381423	-0.003553135636966729
3
Time Step: 2500
Ar	-0.06803854286869396	-0.032725763014796065	-0.032725763014792644
Ne	0.807548683199051	-0.002407023398039589	0.7792504334716488
Ne	0.80754868319905	0.7792504334716488	-0.00240702339804013
3
Time Step: 2520
Ar	-0.0821591307222651	-0.0395176047010195	-0.03951760470101611
Ne	0.8146089771258368	-0.0026504996606254447	0.7862857514204581
Ne	0.8146089771258357	0.786285751420458	-0.002650499660626029
3
Time Step: 2540
Ar	-0.09078836505425447	-0.04366816798237564	-0.0436681679823723
Ne	0.8189235942918316	-0.0034931441057025545	0.7912789591468915
Ne	0.8189235942918304	0.7912789591468914	-0.0034931441057031703
3
Time Step: 2560
Ar	-0.09379272649989147	-0.045113231567444366	-0.04511323156744112
Ne	0.8204257750146501	-0.00438661391463466	0.7936174925408922
Ne	0.8204257750146488	0.7936174925408921	-0.0043866139146352965
3
Time Step: 2580
Ar	-0.09115273270365526	-0.04384342466545237	-0.043843424665449236
Ne	0.8191057781165318	-0.005055797875504409	0.7930168695997701
Ne	0.8191057781165303	0.7930168695997699	-0.005055797875505052
3
Time Step: 2600
Ar	-0.08288545807623887	-0.03986695987317789	-0.03986695987317489
Ne	0.8149721408028239	-0.005489269936072333	0.7894738768680636
Ne	0.8149721408028221	0.7894738768680631	-0.0054892699360729715
3
Time Step: 2620
Ar	-0.06910012829780796	-0.03323637349686026	-0.03323637349685741
Ne	0.8080794759136083	-0.005937994209812605	0.7832920147654863
Ne	0.8080794759136065	0.7832920147654857	-0.005937994209813229
3
Time Step: 2640
Ar	-0.05023374058523809	-0.024161856213057508	-0.024161856213054837
Ne	0.7986462820573232	-0.006921209648574494	0.7752007129204455
Ne	0.7986462820573214	0.7752007129204449	-0.0069212096485750906
3
Time Step: 2660
Ar	-0.027626174520052012	-0.013287874816684593	-0.013287874816682104
Ne	0.7873424990247305	-0.00918514766072532	0.7665906695362235
Ne	0.7873424990247285	0.7665906695362227	-0.009185147660725887
3
Time Step: 2680
Ar	-0.00459184147974594	-0.002208623373343324	-0.002208623373340993
Ne	0.7758253325045776	-0.013502399836012615	0.7598286702681695
Ne	0.7758253325045756	0.7598286702681684	-0.013502399836013156
3
Time Step: 2700
Ar	0.01273975247968663	0.006127675622353409	0.006127675622355663
Ne	0.7671595355248613	-0.02022769779397244	0.7582176692304325
Ne	0.7671595355248593	0.7582176692304313	-0.02022769779397297
3
Time Step: 2720
Ar	0.01787495391305344	0.008597648935360608	0.008597648935362929
Ne	0.7645919348081779	-0.028800204575156984	0.7643202026986096
Ne	0.7645919348081759	0.7643202026986082	-0.02880020457515753
3
Time Step: 2740
Ar	0.010075955282301085	0.0048464195559301424	0.004846419555932682
Ne	0.768491434123554	-0.037757236100518475	0.7770284636034014
Ne	0.768491434123552	0.7770284636034002	-0.03775723610051905
3
Time Step: 2760
Ar	-0.005072574091656162	-0.0024398502760304827	-0.0024398502760276655
Ne	0.7760656988105324	-0.04551304417359578	0.7920705415084391
Ne	0.7760656988105306	0.792070541508438	-0.045513044173596404
3
Time Step: 2780
Ar	-0.02148465582716872	-0.010333874380754409	-0.010333874380751305
Ne	0.7842717396782888	-0.051057243425724874	0.8055087648652919
Ne	0.7842717396782869	0.8055087648652909	-0.05105724342572554
3
Time Step: 2800
Ar	-0.035515905501394024	-0.017082745421779316	-0.017082745421775947
Ne	0.7912873645154014	-0.05395696121628575	0.8151573536968773
Ne	0.7912873645153995	0.8151573536968764	-0.05395696121628645
3
Time Step: 2820
Ar	-0.045482032021151884	-0.02187633859573146	-0.021876338595727844
Ne	0.79627042777528	-0.05408155589492397	0.8200755415494672
Ne	0.7962704277752785	0.8200755415494664	-0.05408155589492468
3
Time Step: 2840
Ar	-0.050704754520402344	-0.024388408543089705	-0.024388408543085886
Ne	0.798881789024905	-0.05141157636153944	0.8199176319634407
Ne	0.7988817890249038	0.8199176319634401	-0.05141157636154015
3
Time Step: 2860
Ar	-0.05097269892516836	-0.024517286745382203	-0.024517286745378213
Ne	0.7990157612272878	-0.04596825154492078	0.8146031853491142