6
Time Step: 50
Ar	-0.021725064282905594	-0.01258571511292771	0.012877600272643992
Ar	0.7527694984670732	0.798657165084948	0.017396963737969454
Ar	0.7866024583339517	-0.012542459841176273	0.7903187519285049
Ar	-0.01962881031337701	0.01216200835457207	5.827594112467818
Ar	0.7553376455070787	-0.8006522263320041	5.848839494952226
Ar	0.7848795664058248	0.012020051375999742	6.623561311934953
6
Time Step: 100
Ar	-0.04953413320957758	-0.02824947580947276	0.022773167893359657
Ar	0.7642750970498847	0.8301254694347072	0.0316352750956571
Ar	0.802905371784169	-0.028348315045682814	0.8426713131869502
Ar	-0.04124982175854271	0.0267456136424702	5.773355416812893
Ar	0.7688109103247888	-0.8326024342198464	5.812934052883105
Ar	0.7959690463975122	0.026446789056647713	6.622513127069211
6
Time Step: 150
Ar	-0.051189350711752964	-0.030430490300038904	0.04567862699513356
Ar	0.7636049564159071	0.8347631509210074	0.05833397806769322
Ar	0.8052296892596598	-0.03080725665673273	0.8695653351024007
Ar	-0.036068981839310836	0.02791073783928315	5.734127224028572
Ar	0.7700655240928738	-0.8378275277465613	5.788926529861954
Ar	0.792475809841446	0.02756785653127746	6.594544776532482
6
Time Step: 200
Ar	-0.025075848278980933	-0.018236183258360433	0.08247586649454476
Ar	0.750070165152342	0.8107872639068682	0.09816935759499734
Ar	0.7926493984127146	-0.019028987326410094	0.8694435272300858
Ar	-0.003688478106407625	0.015176666570949494	5.7105517780212
Ar	0.7587338497438333	-0.8154780415876393	5.776789387422647
Ar	0.7743697366059094	0.015014575812239597	6.53904067147182
6
Time Step: 250
Ar	0.004298715358483212	-0.00433748053737861	0.12086399576103174
Ar	0.734962532961007	0.7838481293300877	0.13919906623704253
Ar	0.77838034998746	-0.005992976106984433	0.8665498650174907
Ar	0.030573567813639225	0.002600115953402336	5.688856621354527
Ar	0.7475014805777351	-0.7942512957999103	5.7639153996606725
Ar	0.7542833533016745	0.003427624807842831	6.48237975785159
6
Time Step: 300
Ar	-0.011968107088697328	-0.01427241831375434	0.13603802392069367
Ar	0.7406492243565669	0.8049280250595605	0.15858625050095634
Ar	0.7889578295087494	-0.01714354797617892	0.9085269929081771
Ar	0.02058553113320362	0.014191415320407916	5.640132078321289
Ar	0.7578162803247579	-0.822167705464841	5.7308723380655255
Ar	0.7569004182360075	0.01681717255127714	6.472903139812766
6
Time Step: 350
Ar	-0.04090560070158681	-0.030853461810949893	0.14478305981617892
Ar	0.752152630015648	0.8388921946740249	0.17241676349033472
Ar	0.8063886308367528	-0.0345335799656486	0.962505183415604
Ar	0.00015656580151533677	0.03003144946619745	5.583712911733395
Ar	0.7719328840661341	-0.8581382194580056	5.694777910506763
Ar	0.7661572429227125	0.03401338180026505	6.474157112214194
6
Time Step: 400
Ar	-0.04566679090755737	-0.03467740333336568	0.16600893660386148
Ar	0.7527974877367923	0.8469515276503506	0.19767285502980705
Ar	0.8105008796182613	-0.03877727591836818	0.9925938670599695
Ar	0.002624212785731953	0.03216017044749409	5.54177594848973
Ar	0.7739992727831628	-0.8661825005370584	5.669295200647741
Ar	0.764568467395373	0.03699606992624247	6.450300250992418
6
Time Step: 450
Ar	-0.022506106461729576	-0.023704740158024245	0.20172699981309034
Ar	0.7409582151477306	0.8250540497844328	0.23594581077475538
Ar	0.7991744773388885	-0.027862275878398342	0.9951918226294509
Ar	0.030639756007531972	0.01915516874617744	5.516850696422134
Ar	0.7628372620840163	-0.8434306433790872	5.655132051614588
Ar	0.7506611017659147	0.024317852649606304	6.39809379521657
6
Time Step: 500
Ar	0.008346313830324087	-0.00867112178633629	0.24145540853302322
Ar	0.7257154079082242	0.7946342394523237	0.2780569644819163
Ar	0.7835589557264695	-0.012487528823453595	0.9899607276659022
Ar	0.06405979628284147	0.0028455687105550654	5.4953720498131995
Ar	0.7487729491311899	-0.8132909054071765	5.644025556605709
Ar	0.7342524594738921	0.00755798314820574	6.339364587017892
6
Time Step: 550
Ar	-0.003408410588925015	-0.016465831107377257	0.25874484348572574
Ar	0.7292754551500702	0.8101461627009351	0.3009779720349139
Ar	0.7917468108747295	-0.020217950262003424	1.0263794560653707
Ar	0.05820753907983177	0.010961106955667689	5.445726000864299
Ar	0.7557308053818044	-0.8323897815537774	5.616567442086239
Ar	0.7360948589260191	0.015613352090085308	6.325133697228151
6
Time Step: 600
Ar	-0.03354537269322152	-0.03408977304106454	0.26630209449252906
Ar	0.7408594725275418	0.84595777691712	0.31522463838813264
Ar	0.8102918506517892	-0.038420735842052835	1.0812273078612993
Ar	0.03848705540926758	0.02820609507771027	5.386422970501704
Ar	0.7705518315886657	-0.8710869866602782	5.582067441960586
Ar	0.7439433978100763	0.03413950590150734	6.327579076207507
6
Time Step: 650
Ar	-0.04130725813709905	-0.039584203948614116	0.28580660044294887
Ar	0.7426761317367723	0.8575320052618209	0.3392146505334454
Ar	0.8162277910900934	-0.044517703382124296	1.1144095908163856
Ar	0.03944817378119153	0.03263604056016802	5.3435722633492535
Ar	0.7745102889013472	-0.8843728180853154	5.55501431054412
Ar	0.7419742843924009	0.04007138547641855	6.306100231372663
6
Time Step: 700
Ar	-0.02083342488407893	-0.029727230865958867	0.32048120681172726
Ar	0.7322592892513307	0.8382328203376854	0.37555833798044935
Ar	0.8061599183635588	-0.0350948880101281	1.1200954352694954
Ar	0.06516997616675448	0.0212849020881198	5.320810187104117
Ar	0.7651592754808811	-0.8659472568378667	5.537128369805856
Ar	0.7285555538568486	0.03007518269991449	6.255338227734228
6
Time Step: 750
Ar	0.011757420275267494	-0.013259264742896714	0.36168501913683676
Ar	0.7165999872752333	0.8056784736123385	0.41715140536163275
Ar	0.7892158674535705	-0.019030332000679957	1.1140319122875924
Ar	0.10043208541038876	0.0031613059512147256	5.305333798114943
Ar	0.7501401380653521	-0.8342347800342803	5.5228359857947655
Ar	0.711266266226071	0.013566950155481162	6.193667761657162
6
Time Step: 800
Ar	0.006047129583285491	-0.017820399750809086	0.3819854788508844
Ar	0.7172661893360098	0.8154159262424897	0.44239815336732247
Ar	0.794245857089186	-0.024231132497854368	1.145249128984386
Ar	0.10159950073662027	0.006140759934940957	5.258558103561846
Ar	0.7526941366438705	-0.8456476629500537	5.497027557944133
Ar	0.7105001277874989	0.01908368549187515	6.17478157729142
6
Time Step: 850
Ar	-0.02458771026405019	-0.036111515342772356	0.3886539853911301
Ar	0.7285509022111335	0.8525820674423847	0.45720237713015555
Ar	0.8135800242032359	-0.043133529636524094	1.200574892247364
Ar	0.08305013651506359	0.02243174405499066	5.194259291852152
Ar	0.7662431418933013	-0.8835765642529484	5.464621967118731
Ar	0.7184576230883749	0.03780779773487007	6.179981603907513
6
Time Step: 900
Ar	-0.03550751670449054	-0.04347596986279463	0.4062545613104805
Ar	0.7315771565555731	0.867575010948112	0.4804016399294973
Ar	0.8214551896826314	-0.050792500921887244	1.236611737680484
Ar	0.081514848869645	0.027713103884467825	5.146672129210822
Ar	0.7707408626181254	-0.8986546087660772	5.437835987996548
Ar	0.7184547530961627	0.04469378824759177	6.162812179166268
6
Time Step: 950
Ar	-0.01831609730234798	-0.03519831341384249	0.4395184320979421
Ar	0.7228781982840694	0.8509253581921442	0.5153952366805113
Ar	0.8129414559407472	-0.042454355874714196	1.2452331525882212
Ar	0.10310569305822061	0.017503726832142057	5.122161058446487
Ar	0.7625948305166945	-0.8818474550880643	5.418440020956712
Ar	0.7079723900908511	0.035188686411159124	6.115134452171286
6
Time Step: 1000
Ar	0.014494014617139409	-0.018195416836265278	0.4815227559940118
Ar	0.7076742622938101	0.8167726243002331	0.5567844134039093
Ar	0.7953110142544959	-0.025342077526945363	1.2387639419981562
Ar	0.13736868729332985	-0.0004886785493713004	5.111265111017542
Ar	0.7481147082855725	-0.849255599223108	5.402405327147526
Ar	0.6911549603144753	0.017685618423693043	6.050434921027069
6
Time Step: 1050
Ar	0.01469928418612578	-0.019496610983377155	0.5050574489444142
Ar	0.7057647054155215	0.8201330426349253	0.584481084898807
Ar	0.7969881382632034	-0.02744297178903412	1.264505147828024
Ar	0.14617775729616628	0.0012272427904727577	5.074394885852215
Ar	0.7494747930785498	-0.8584454576650168	5.377159707155407
Ar	0.6839541452898433	0.022260049129677807	6.020872313556403
6
Time Step: 1100
Ar	-0.015458660556937814	-0.03789727352341723	0.5113458556702297
Ar	0.7162409642217527	0.858158321753705	0.5997890504195983
Ar	0.81663937872415	-0.047113747365954355	1.3199343113447097
Ar	0.13184412463705916	0.018751281341000254	5.011527595165111
Ar	0.7635406127860737	-0.900813760026179	5.345090454124839
Ar	0.6871935801879004	0.044209295467904794	6.024077439157837
6
Time Step: 1150
Ar	-0.028940872915741937	-0.046837548518831575	0.5272320181144929
Ar	0.7200222800872669	0.8767857558368867	0.62196137831464
Ar	0.8263055252263232	-0.0568518817272077	1.3589613368306914
Ar	0.13006154524196284	0.025789254406347994	4.962129968110624
Ar	0.7693342436425723	-0.9211163717510802	5.317196176387042
Ar	0.6861584551882034	0.05458373293035613	6.0095779457718965
6
Time Step: 1200
Ar	-0.014696611532108945	-0.03999483546488573	0.5591467337230469
Ar	0.7127135960248545	0.8632051138516204	0.655334503577134
Ar	0.8193299642442468	-0.050170139387069136	1.370826119951296
Ar	0.1487430886143803	0.016632775636746172	4.936280319813298
Ar	0.7623876623197896	-0.9073285551253583	5.295388531485588
Ar	0.6774046532700131	0.04706740519482995	5.96537673262608
6
Time Step: 1250
Ar	0.017685176719214296	-0.022808107835446678	0.6016162636763045
Ar	0.6982293976628405	0.8282772933966372	0.6961530911120686
Ar	0.8013868645479763	-0.03249102838767637	1.3647634584141333
Ar	0.18020862643693505	-0.0033218689173075354	4.92504760216109
Ar	0.7469715521737526	-0.8703048360138186	5.277811306103754
Ar	0.6643419118710444	0.02711913599290719	5.902255337356144
6
Time Step: 1300
Ar	0.02296537305711126	-0.021259220708126178	0.6282027415918148
Ar	0.6944892468569925	0.8245928731621212	0.726824675893471
Ar	0.799795936730402	-0.030424021709333785	1.3848085972523934
Ar	0.19164998158973381	-0.007959759396858964	4.887406178411214
Ar	0.7433380554636769	-0.8645044941516503	5.2562177361907
Ar	0.6595261121844352	0.023084034568555033	5.869481247130956
6
Time Step: 1350
Ar	-0.006834617866836326	-0.03993505576921112	0.634117086369851
Ar	0.7044482809320899	0.8622694864908039	0.7437399609902007
Ar	0.8195799362234263	-0.049500555496165194	1.4393680871925596
Ar	0.17913611780206076	0.00813905499450567	4.819571691778167
Ar	0.7556966978302283	-0.903133712635161	5.22776165331948
Ar	0.6626794674319708	0.042749017709345805	5.87367681446735
6
Time Step: 1400
Ar	-0.02312354447668589	-0.05073145004724164	0.6480926391903585
Ar	0.7091230314469115	0.8842928611266978	0.765534587488957
Ar	0.8311289770002891	-0.060811020639852865	1.481086078203208
Ar	0.17650844911663863	0.01686893394782637	4.766240406797995
Ar	0.7624926601022477	-0.9270207943219524	5.200517135949444
Ar	0.6615174856341266	0.055048528758052225	5.862058564134701
6
Time Step: 1450
Ar	-0.011972770850023042	-0.04552029201239322	0.6785187065873244
Ar	0.7032151003929232	0.8739362002333624	0.7975727075917584
Ar	0.8258107359476002	-0.055757322489493256	1.4962228700772142
Ar	0.1926322619251566	0.0099990967532224	4.739845844136246
Ar	0.7574881091714766	-0.9181472898872994	5.176845590977327
Ar	0.6534147987069827	0.05019548975554192	5.819817810041852
6
Time Step: 1500
Ar	0.019835761465061642	-0.028207031267741926	0.7214016260548672
Ar	0.6893681530928567	0.8392285082729798	0.8371622366161221
Ar	0.8077627167374555	-0.03846403408431034	1.4914749889397763
Ar	0.22280750580590525	-0.008729852060675806	4.734266556137477
Ar	0.7436048359487519	-0.8846696932809062	5.155423433047358
Ar	0.6401504387146738	0.03260680830300664	5.754388806263181
6
Time Step: 1550
Ar	0.03133969525153322	-0.02284965482572988	0.751905031684429
Ar	0.6831066482120718	0.8292004473686742	0.8690715969954328
Ar	0.802423250827919	-0.0339052665908428	1.5069185197716066
Ar	0.24055818624376935	-0.016319079988322365	4.708993932103006
Ar	0.738158452772269	-0.8763836093735525	5.130944425642113
Ar	0.6308843549277299	0.0290806928215372	5.711578258509255
6
Time Step: 1600
Ar	0.0035823331007399112	-0.04072185042935982	0.758421924988009
Ar	0.691652805865845	0.8660396286281741	0.8869480665956377
Ar	0.8215258796975213	-0.0529962609283962	1.560526757668241
Ar	0.233120530629642	-0.0018669050625713226	4.642556095848655
Ar	0.7490584548378253	-0.9150532652464134	5.102670913742985
Ar	0.6304717605743066	0.05048100597974243	5.71358212350937
6
Time Step: 1650
Ar	-0.015072738164458454	-0.053201732690863396	0.7706348749708388
Ar	0.6969183322817493	0.891454934089571	0.9083985678586093
Ar	0.834791156886385	-0.06606861127144961	1.605035246735041
Ar	0.23075730867427505	0.0073932177203621975	4.58443928526307
Ar	0.75605087184341	-0.9413862746864758	5.075847277916431
Ar	0.6289080096551075	0.06474964330944273	5.705644747255969
6
Time Step: 1700
Ar	-0.00715570845003111	-0.04983908548273695	0.7994233325411355
Ar	0.6924396208669954	0.8843948546216827	0.9394680399980413
Ar	0.8312081053011998	-0.06252192417768015	1.6235479425910486
Ar	0.2440929915722396	0.0015279420032277245	4.553604095291968
Ar	0.7519295021853503	-0.9341956805178185	5.051529624869426
Ar	0.6227796061713022	0.06063389355332409	5.667721082355402
6
Time Step: 1750
Ar	0.02285954040708982	-0.03325833995782397	0.8420939518901096
Ar	0.6799209492626279	0.8502143232140579	0.978478770284508
Ar	0.8135440717694729	-0.04508855063569119	1.6204585816161925
Ar	0.27039064652397443	-0.01686035488479784	4.546279844823448
Ar	0.7386393003876495	-0.899074861171619	5.029056390167486
Ar	0.6128807857668296	0.041126606965285084	5.6042206965123365
6
Time Step: 1800
Ar	0.03875609679871356	-0.025254898055202434	0.8758512378260963
Ar	0.6725154673417133	0.8334063958263622	1.0126965521506532
Ar	0.8048634785910561	-0.03646906093005026	1.6313127089344892
Ar	0.2896941145567084	-0.026914905140573552	4.526011436944113
Ar	0.7312459778459196	-0.8823530995574705	5.005588702117947
Ar	0.6041013354541208	0.031703214915756804	5.55442171496784
6
Time Step: 1850
Ar	0.01323096467492251	-0.0423418149093673	0.8832809678783036
Ar	0.6799302584584773	0.8680448567497118	1.0324619874277816
Ar	0.8227607153274711	-0.054226900667994966	1.6832089397663919
Ar	0.28679623306536267	-0.01298150827631706	4.46207607337543
Ar	0.7411386952105206	-0.9202257673721055	4.978979056087345
Ar	0.6002607803220658	0.05290760506430711	5.551169446052944
6
Time Step: 1900
Ar	-0.007413273223826266	-0.05642942062333722	0.8939216039188455
Ar	0.6855980399251507	0.8967348685407011	1.053775966333925
Ar	0.8374916044152472	-0.06905826474126486	1.7306592729689236
Ar	0.28609698459114224	-0.001990878617184277	4.4023486677556205
Ar	0.7490951669301389	-0.9521356213117211	4.952094416439291
Ar	0.5961903008915552	0.07111461087045175	5.543670660818648
6
Time Step: 1950
Ar	-0.002304384197976415	-0.05476524888441718	0.921299196115062
Ar	0.6821987571843896	0.893289506894914	1.0837817109902552
Ar	0.8354925052418628	-0.06752987132339919	1.7530569421684696
Ar	0.2983146632222312	-0.005921735047328269	4.370212532432891
Ar	0.7466051711861786	-0.9505310035325222	4.925856000427619
Ar	0.5896932873633096	0.0707524695398099	5.507558323748011
6
Time Step: 2000
Ar	0.026139241613485638	-0.038783552130960644	0.96396456000959
Ar	0.6706645922528907	0.8605349717437117	1.1216588851409781
Ar	0.8182433693177806	-0.05103704984597288	1.752722418692406
Ar	0.3220020838916147	-0.02368094046182038	4.363278569907683
Ar	0.7344851583989128	-0.9175280154995532	4.90011627016153
Ar	0.5814067309958993	0.05284752737106379	5.445318119617179
6
Time Step: 2050
Ar	0.04652502896577823	-0.02791370232297657	1.00137576486752
Ar	0.6620176291384853	0.8377134485915178	1.1572521984314124
Ar	0.8061158040884413	-0.039398982451511064	1.7603861900746052
Ar	0.3425105796369431	-0.03842923742710163	4.346340398638377
Ar	0.7243940077491454	-0.8908581778626371	4.874977002032002
Ar	0.574319303362379	0.03829841617858906	5.392021387132504
6
Time Step: 2100
Ar	0.024084864835224266	-0.04382390406655608	1.0104633646043277
Ar	0.66824802223874	0.8689034656542122	1.1792952810995743
Ar	0.8218850727105156	-0.05503253118823494	1.8104357796103239
Ar	0.34382156202048175	-0.02872973531261989	4.2799349449879545
Ar	0.7309557892564545	-0.9196756326186353	4.850395129699963
Ar	0.5698282183503437	0.05482892576712564	5.387122558821336
6
Time Step: 2150
Ar	0.0014686969114591259	-0.05984816539581392	1.0195694226618914
Ar	0.6745562375184724	0.900381946494948	1.201262611989815
Ar	0.8376789079086651	-0.07088368383073976	1.8611771828311197
Ar	0.3446870322587669	-0.017507630998705594	4.213498508120417
Ar	0.7385742765246358	-0.9522998422867317	4.825144266011572
Ar	0.5647995547603483	0.07368678778174648	5.3822891848557255
6
Time Step: 2200
Ar	0.0034870870903805453	-0.06037546245619869	1.0454627002990542
Ar	0.6725132837261862	0.9004179145133508	1.2310412124886232
Ar	0.8370830864727317	-0.07083389084969251	1.8881194400365002
Ar	0.3556854601334222	-0.019702083024326876	4.176097252170063
Ar	0.7371997482152332	-0.9540397867686765	4.79858289602903
Ar	0.5587372167149817	0.07512154387965893	5.348931793094329
6
Time Step: 2250
Ar	0.02976207617462203	-0.04558063036193736	1.088041674169879
Ar	0.6622954714041419	0.8694155969032127	1.2684314430796826
Ar	0.8202778101644888	-0.05511918255370813	1.8917047944566412
Ar	0.376505656351611	-0.0354251790110978	4.168153197743424
Ar	0.7268588257030738	-0.9246114212666848	4.7703473094115845
Ar	0.5519472190255864	0.0589678751137422	5.286850992903452
6
Time Step: 2300
Ar	0.054286263161671205	-0.032099558678952235	1.1295263175514283
Ar	0.6526784469011356	0.8412472491194078	1.3051862457359615
Ar	0.8044957488894994	-0.040991413444278986	1.8980446011134866
Ar	0.398015483565947	-0.05079743625513579	4.162034866721775
Ar	0.7169397090700435	-0.8976419602295458	4.740915688703952
Ar	0.5441725837058151	0.044989001841443194	5.223115809585123
6
Time Step: 2350
Ar	0.036856579193564325	-0.04596332713658665	1.1419612627199596
Ar	0.6572581273901538	0.8680136786893768	1.3292421271386194
Ar	0.8163420555124412	-0.05453722400819159	1.9472658947009833
Ar	0.40561021755730675	-0.04304777922434482	4.10578758471071
Ar	0.7223021282123421	-0.926729499143986	4.713652786771417
Ar	0.5351603038988918	0.06402885670608238	5.206207991017098
6
Time Step: 2400
Ar	0.013476783517598907	-0.06379682604301365	1.1504606888185747
Ar	0.6639939106107899	0.9021314077094219	1.3519661599026904
Ar	0.8317986594262506	-0.0715553284883473	2.003199829574708
Ar	0.410478205562034	-0.03139141647366101	4.036625601496441
Ar	0.7300784700141228	-0.9640253760483535	4.687520510586478
Ar	0.5266445591044914	0.08746106875571553	5.19963897432695
6
Time Step: 2450
Ar	0.012973322055657105	-0.06672829873350172	1.1755511168255213
Ar	0.6632473584661602	0.9058050432036362	1.3820028405079352
Ar	0.8315763564108505	-0.07312172024264381	2.0371739553783423
Ar	0.4221861796708289	-0.03238478648110356	3.9926209514126585
Ar	0.7296425395948105	-0.9698413458441308	4.659414461482885
Ar	0.5197860085075683	0.09215346103891718	5.167942556745556
6
Time Step: 2500
Ar	0.036907753636644836	-0.0536641919587394	1.2186037089631063
Ar	0.6545407730005459	0.8768421911404993	1.4198451414894602
Ar	0.8145074797764932	-0.05815126428711952	2.047813230848627
Ar	0.44108315694409833	-0.047191450552761104	3.977122295565935
Ar	0.7203369089710715	-0.9411870008298279	4.6286579318235805
Ar	0.5149768688476093	0.07629289295853385	5.107957691309246
6
Time Step: 2550
Ar	0.06435644610572441	-0.03887430491996862	1.264624968876891
Ar	0.6451389806122432	0.8430828309020306	1.4595390339963266
Ar	0.7942346728335753	-0.040261042493718126	2.056398211465911
Ar	0.46207433767519496	-0.0653494402978694	3.9670623288425375
Ar	0.7087572089835525	-0.9035628668115394	4.597215440075815
Ar	0.5107324714367605	0.054964823621061545	5.0404541343895355
6
Time Step: 2600
Ar	0.05277533833551707	-0.051856731157777315	1.282173049354138
Ar	0.6497023651240559	0.862578534339902	1.4883801866955364
Ar	0.7986300918837783	-0.048067642835433015	2.1074714955844644
Ar	0.47532058719384557	-0.06243689532230811	3.9096331392884105
Ar	0.7104794086155208	-0.9202280621977961	4.569522639653823
Ar	0.5013275029649217	0.06706962070282056	5.013407724717706
6
Time Step: 2650
Ar	0.029778679669624795	-0.07310817309567744	1.2916218811960216
Ar	0.6583359150917389	0.8981793400449524	1.5140032043939422
Ar	0.80977062745115	-0.0639619967429434	2.1742584135560517
Ar	0.4861610627211671	-0.05114018566387123	3.8326585360956957
Ar	0.7177885031450035	-0.9600541655012446	4.542092742086798
Ar	0.4893416825095429	0.09420282801760305	5.001247575612629
6
Time Step: 2700
Ar	0.027657992841118945	-0.07986959263710543	1.3178155327394634
Ar	0.6598583695675763	0.9052270668227402	1.5463903989287973
Ar	0.806080959374885	-0.06604580553873653	2.2243298114581482
Ar	0.5013494173031245	-0.05062526066700749	3.776906739625163
Ar	0.7186939786616967	-0.9723574469124797	4.510281180635678
Ar	0.4804769293104148	0.10484750952081962	4.9654528072009425
6
Time Step: 2750
Ar	0.05008536959121227	-0.06949534524849632	1.364240926284134
Ar	0.6530342247366647	0.8783222248593094	1.5871172747643196
Ar	0.784605389017914	-0.05161854639536122	2.2556315494654213
Ar	0.5215817462488653	-0.06357644433435991	3.7463780623603946
Ar	0.7116277570595428	-0.9494789036685078	4.47283384745045
Ar	0.47612433687520567	0.0940823089050581	4.900268927910529
6
Time Step: 2800
Ar	0.08312448621462941	-0.05370448979756514	1.4209702651048002
Ar	0.6439976644221826	0.8376155752010629	1.6330982222451178
Ar	0.7528787241953692	-0.0293812110911642	2.2840885880315773
Ar	0.5452991338207018	-0.08412513801306205	3.726435924105592
Ar	0.700545150133207	-0.9082134238746974	4.430199980269874
Ar	0.4741548412139027	0.07310280522247943	4.816971726125346
6
Time Step: 2850
Ar	0.08676534272262884	-0.0682185356067547	1.457115006644007
Ar	0.6517061225550793	0.8426621537664436	1.6746134393255623
Ar	0.731871133319042	-0.023713032234541118	2.353841881329689
Ar	0.5693154420314016	-0.09204420187530492	3.6698861865145878
Ar	0.6988183336084002	-0.9100254845042866	4.386622373060905
Ar	0.4644648022340291	0.08369204163090842	4.754979936654617
6
Time Step: 2900
Ar	0.07269134199601261	-0.10151586837877576	1.4812399668251448
Ar	0.6698064661616101	0.8753598614003689	1.7141050052454092
Ar	0.7158277452941152	-0.02874765468092165	2.4606240163515882
Ar	0.5942598413016549	-0.0870391399462427	3.5707677420406485
Ar	0.7052954280970316	-0.9501076576312398	4.343684060970799
Ar	0.44800153009074384	0.12146222394268744	4.711932149742835
6
Time Step: 2950
Ar	0.07507393700969621	-0.12160300809465015	1.5229295565916692
Ar	0.6809792814795682	0.8829645897189259	1.7621749878424364
Ar	0.6933464979185259	-0.02115207446790688	2.5128929307286234
Ar	0.6153156470100126	-0.09054360316699449	3.525645977058844
Ar	0.7077769242264882	-0.9682002925256886	4.294430139905403
Ar	0.43633124176746485	0.1450049767716017	4.649573466696507
6
Time Step: 3000
Ar	0.09351684350119391	-0.12327140956442761	1.57842435712418
Ar	0.6815847897328398	0.8624149129656788	1.8156867696452632
Ar	0.6750479707486768	0.002163824784516098	2.4363959939854345
Ar	0.6274084006268709	-0.10910130958274207	3.6037740889572905
Ar	0.7043979190535797	-0.9569765266254391	4.242190978726516
Ar	0.4298087822191827	0.14829991978711227	4.576468988031857
6
Time Step: 3050
Ar	0.07824947994574774	-0.11858875926734783	1.5758541501680399
Ar	0.6729096995399989	0.8698888873931797	1.8354362550655285
Ar	0.7000413129116733	-0.01105304442593541	2.4614055151318333
Ar	0.6561846204008907	-0.11375005121658775	3.548922852385641
Ar	0.6992630421600828	-0.9636641959335898	4.22327073550998
Ar	0.4080577273945381	0.1577553987443918	4.593345785856571
6
Time Step: 3100
Ar	0.04953781975706405	-0.10244645838896721	1.545122847383629
Ar	0.6539783250439511	0.8928763728614613	1.8295677107809611
Ar	0.7522915286127926	-0.04849994884189823	2.4846928913911266
Ar	0.6862601100621906	-0.10355354433853152	3.500903863522446
Ar	0.6904418992725431	-0.9753632367985329	4.23020244758897
Ar	0.38513737607497844	0.15463387432999054	4.633039651097523
6
Time Step: 3150
Ar	0.041049644534753855	-0.06793976555037413	1.5328698447087519
Ar	0.6250546334392759	0.8901871129475136	1.8252947788384517
Ar	0.8022700050334034	-0.07243643494901116	2.365325330953409
Ar	0.7034148894974458	-0.09682782609413765	3.597153251374319
Ar	0.6757224371239453	-0.9638295191920273	4.242417399203098
Ar	0.37307662566528377	0.12555231519097038	4.645762924333682
6
Time Step: 3200
Ar	0.04023418854871248	-0.022872572516053225	1.5266260758684267
Ar	0.5892497227281388	0.8783961853161952	1.818654203663744
Ar	0.8505417699742419	-0.09938471602345084	2.26031278007627
Ar	0.7239219434540538	-0.06534162770384938	3.655671724040991
Ar	0.6547746706517483	-0.9568897806098278	4.278143568025875
Ar	0.36480711640779995	0.07785721741933073	4.654709295383466
6
Time Step: 3250
Ar	0.019328035368790263	0.00740196193786451	1.5063787176435084
Ar	0.561141430339115	0.889512571175336	1.8150155621866422
Ar	0.9098765148463889	-0.13521646238975996	2.187174023581926
Ar	0.758897878948722	-0.019389945302186733	3.6477866741003706
Ar	0.6310225562218703	-0.9624420685550028	4.328449589479639
Ar	0.34620417251039665	0.02895747254550548	4.694607197713746
6
Time Step: 3300
Ar	-0.014578302949078822	0.01173925194293989	1.479572590540302
Ar	0.5516286663289419	0.9172812921875809	1.8243604886087514
Ar	0.9625682328536307	-0.16180257714454388	2.1237660858109337
Ar	0.7935985421287262	0.014115476783369777	3.631554490015277
Ar	0.6141449474492399	-0.9737696966237943	4.363008912576967
Ar	0.3220496788944101	-0.0016813942043846914	4.742443314800658
6
Time Step: 3350
Ar	-0.033834840290202915	0.011199708187429006	1.4631154583734827
Ar	0.5506464528643042	0.9277521277340005	1.8410822298194516
Ar	0.9912644604346074	-0.1660263075820219	2.055979521092268
Ar	0.8173011371416263	0.02819989140198065	3.6363250105397404
Ar	0.6083967623675284	-0.9918458955327101	4.373147047989932
Ar	0.2985789686585935	-0.0063383477380991714	4.780350732185079
6
Time Step: 3400
Ar	-0.02900542619209191	0.016369550199828165	1.4615817083168658
Ar	0.5520244852230154	0.9091279733735612	1.8596010059522636
Ar	0.9930244744594015	-0.14688199559122	1.9820729927696903
Ar	0.8277389732083893	0.02264498037426194	3.666566930448754
Ar	0.6089831243556059	-0.9988523769325951	4.365996201248691
Ar	0.2825284865927245	-0.0024081314238460147	4.79947527891075
6
Time Step: 3450
Ar	-0.010461475206471428	0.024284516533831152	1.4682310047034905
Ar	0.5541205386407456	0.8769296373212551	1.879055141310043
Ar	0.9801814231758287	-0.11727790493903388	1.9070677386092327
Ar	0.8238516518438705	-0.002406662077652176	3.7240927885779778
Ar	0.6123096848404781	-0.9822354649690143	4.3471190168196925
Ar	0.2782334708231796	-0.002235298339983957	4.79502254527364
6
Time Step: 3500
Ar	-0.015503509884740653	0.02612806358009905	1.4636399591011282
Ar	0.5507297804876128	0.8789094147227408	1.903926829068974
Ar	0.9964262415442219	-0.1163856213995596	1.8437196537852087
Ar	0.8083605304470178	-0.038914923830449075	3.8018968607792223
Ar	0.6177363535402534	-0.9521367757704852	4.320737627575619
Ar	0.28342707445385373	-0.0034825102435323703	4.771961422630986
6
Time Step: 3550
Ar	-0.04280492762149299	0.02727793296312485	1.4499973737428866
Ar	0.5410492761985431	0.903611822734246	1.932394711540554
Ar	1.0412639202073006	-0.13817109491393836	1.7900536385884527
Ar	0.8094411176736099	-0.03280923608215098	3.838733002643839
Ar	0.6174597670563411	-0.973605874629727	4.313211875995348
Ar	0.277708493544505	0.004872920516670089	4.766785868077115
6
Time Step: 3600
Ar	-0.05480338315802879	0.03703246095493649	1.444844130092256
Ar	0.5307313562783185	0.9056893851857474	1.9547084608871375
Ar	1.071496438650264	-0.14656799088186442	1.7375349481193123
Ar	0.8381362749860682	0.013070059076596006	3.817376541841282
Ar	0.6078766311466578	-1.032613488136248	4.327846233969662
Ar	0.2536215056261147	0.011624867918468841	4.794160273325599
6
Time Step: 3650
Ar	-0.04156255906859156	0.055217183962719234	1.4512946601905712
Ar	0.5228015570848542	0.8766992016659767	1.967844975612924
Ar	1.074243901156507	-0.1329874000464527	1.6859734934693165
Ar	0.8616907181031485	0.04540828294618444	3.802825685170196
Ar	0.5953165151466091	-1.0596923831087297	4.343454527011741
Ar	0.23750986757745515	0.0006492322273506234	4.810371364427559
6
Time Step: 3700
Ar	-0.018269922152147205	0.06911849262809623	1.4591069955501843
Ar	0.5256000642166851	0.8330752644120004	1.9797689875284066
Ar	1.0564536857210223	-0.1011997130371165	1.6376682492069519
Ar	0.8696936352018206	0.056721448138573445	3.8121144333678667
Ar	0.5811230298844076	-1.0461023531508238	4.357277289785912
Ar	0.23834068359878216	-0.029260197814269265	4.8011228680900455
6
Time Step: 3750
Ar	-0.02588869209689663	0.058269279410120486	1.4473532687043775
Ar	0.5486266173380816	0.8133875576884814	2.0112809793275233
Ar	1.0496497864069438	-0.06935120088461025	1.592692952981805
Ar	0.8626223061004591	0.04668462330894683	3.8434311217307777
Ar	0.5691694421641176	-1.0022082876740075	4.364723153061972
Ar	0.2517028930284521	-0.06737020714305889	4.772871465369971
6
Time Step: 3800
Ar	-0.05919475453460224	0.0396493735559933	1.4263019977891456
Ar	0.5729565771577549	0.8141102496664209	2.057032041232316
Ar	1.0675252164001838	-0.05094983841464705	1.5459711477816716
Ar	0.8528569142389402	0.01913032726201164	3.87718651050871
Ar	0.5772402345057298	-0.9827731304568731	4.343591198448624
Ar	0.24743934164373904	-0.06269639337762255	4.767564163063019
6
Time Step: 3850
Ar	-0.07792389116052936	0.03214252888344797	1.4154949905807097
Ar	0.5870591352805745	0.8044179230514685	2.0960848954575204
Ar	1.0813188860863876	-0.03413041538167217	1.4987380679000812
Ar	0.8570063147499457	-0.012080893429157724	3.887981661584309
Ar	0.6027537663347501	-1.0010779286253781	4.29896349419063
Ar	0.21155049459120528	-0.01574180273401375	4.805678066757291
6
Time Step: 3900
Ar	-0.06871144032651398	0.03848937852365768	1.419135245759738
Ar	0.59226294052299	0.7730348664002589	2.119766004770161
Ar	1.07634786116034	-0.010457116841038205	1.4554422490099233
Ar	0.865627760095935	-0.029227853358924003	3.8887890020885383
Ar	0.6205781771563752	-1.0214281510146719	4.265004182939056