3
Time Step: 20
Ar	-0.0035655496451405654	-0.03063990864748921	-0.002337405703533713
Ne	0.7759591839164544	-0.0041397172171180234	0.7506871364276898
Ne	0.7746651892580981	0.7494855082175484	-0.004232083665332713
3
Time Step: 40
Ar	-0.012217329702318737	-0.03354400124032095	-0.008085093167880152
Ne	0.781933287763393	-0.014198308079639432	0.7667198311371498
Ne	0.7773428654683378	0.7624481916729017	-0.014517090910446359
3
Time Step: 60
Ar	-0.022007151957816648	-0.03659467849635013	-0.014824238167348888
Ne	0.788935196163266	-0.026036441577966148	0.7855598730353495
Ne	0.780130779323963	0.7773370024272577	-0.02661798780917717
3
Time Step: 80
Ar	-0.029896395059604546	-0.038583774799246684	-0.02072438496624023
Ne	0.7950615029422705	-0.0369495806047369	0.8025993188411249
Ne	0.781893715646746	0.7902392377569251	-0.03775728681606129
3
Time Step: 100
Ar	-0.03426928882185524	-0.03885393335414375	-0.024827120173593866
Ne	0.7993179475721559	-0.04574802070310096	0.8156542035693741
Ne	0.7820101647791113	0.7993078364101862	-0.04670943633695694
3
Time Step: 120
Ar	-0.0344446889558884	-0.03713957628236403	-0.02671687737940676
Ne	0.8012760857881818	-0.052001738481943886	0.8238660595642431
Ne	0.7802274266971186	0.8038471971172493	-0.053031535126012795
3
Time Step: 140
Ar	-0.03027210043278145	-0.03343409709291665	-0.026249768045747208
Ne	0.8007912322166348	-0.05557372115812897	0.8269531886688816
Ne	0.7765396917455584	0.8037137006039872	-0.056585773564310465
3
Time Step: 160
Ar	-0.022002426049480595	-0.027977594931197516	-0.02343659582416549
Ne	0.7978823115164914	-0.056424306652003486	0.8248948534626127
Ne	0.7711789380624009	0.7991077839361425	-0.05734061057962329
3
Time Step: 180
Ar	-0.010418287497178484	-0.021379876815396697	-0.018450175387664206
Ne	0.7927426155484419	-0.05455607252566849	0.8178869233682282
Ne	0.7647344954781483	0.7906418316940066	-0.05531910092174009
3
Time Step: 200
Ar	0.002772662132963849	-0.014881659397291221	-0.011757443175627354
Ne	0.7858808741672982	-0.05004531762268933	0.8065144270841051
Ne	0.7584052872291496	0.779632859372922	-0.05063933684965415
3
Time Step: 220
Ar	0.014413617614872433	-0.010599121008713814	-0.004399026082296181
Ne	0.7784076221261862	-0.04315752730756335	0.7921533847278674
Ne	0.7542375837883525	0.7684625306692187	-0.04363671158674765
3
Time Step: 240
Ar	0.02002356668733108	-0.011102121088333668	0.0017139230697823255
Ne	0.7723110891346797	-0.034526334140887106	0.7774256585696848
Ne	0.7547241677074004	0.7603343375821623	-0.03502193458064347
3
Time Step: 260
Ar	0.015903674336787858	-0.017670721538142885	0.004162631169048303
Ne	0.7700405614375597	-0.025240155262498506	0.7658689519941762
Ne	0.7611145877550638	0.7576167591535828	-0.025913936104400834
3
Time Step: 280
Ar	0.0022308688105800566	-0.0288718494408612	0.0016909535455587926
Ne	0.7728310059856882	-0.016615169886061112	0.7600344111658673
Ne	0.7719969487331431	0.7601929016798636	-0.0176077176526025
3
Time Step: 300
Ar	-0.016929317868086113	-0.041777714372282115	-0.004563368201686496
Ne	0.7795049794082202	-0.009755466371186806	0.7598486810735251
Ne	0.7844831619892771	0.7662390630964104	-0.01116766581301511
3
Time Step: 320
Ar	-0.036786625090286365	-0.05396300293652679	-0.012235386859642101
Ne	0.7876296107780537	-0.005211467558592275	0.7634293136307644
Ne	0.7962158378416438	0.7738803528480604	-0.007076279712298503
3
Time Step: 340
Ar	-0.05404573316908112	-0.06408528331864667	-0.019372214556317012
Ne	0.7951720538762185	-0.0029034735015971876	0.7686637626719339
Ne	0.8059325028222738	0.7816946391731854	-0.0051739010567931655
3
Time Step: 360
Ar	-0.06701275470476506	-0.07156678044451395	-0.024857738966133715
Ne	0.8009576066229357	-0.002326403010525369	0.7738722449275793
Ne	0.8131139716112407	0.7885990658079808	-0.004896858902621834
3
Time Step: 380
Ar	-0.07496454540011327	-0.07621024946251839	-0.02816606064347746
Ne	0.8044298288407239	-0.0028539628013534257	0.7778720269361957
Ne	0.8175935400888008	0.7937700946168134	-0.005588319233894347
3
Time Step: 400
Ar	-0.07764113234681533	-0.07796874212971626	-0.029084154922981633
Ne	0.805364019068728	-0.003956256255275329	0.7799085106181217
Ne	0.8193359368074989	0.7966308807379332	-0.006706708636316007
3
Time Step: 420
Ar	-0.07498451628401281	-0.07683836186531678	-0.02755791912457862
Ne	0.8037045491945556	-0.005295458688176971	0.7795882431768509
Ne	0.8183387906188692	0.7968397029064352	-0.007912676993448137
3
Time Step: 440
Ar	-0.06705854580591059	-0.07282387087437145	-0.02364643963742171
Ne	0.7995155487517287	-0.006748904961157189	0.7768526890070042
Ne	0.8146018205835936	0.7942786581884702	-0.009088602310758358
3
Time Step: 460
Ar	-0.05411636770837379	-0.06595704806457751	-0.017571084349678828
Ne	0.7930317569159046	-0.00840598890081863	0.7720259811108418
Ne	0.8081434343218812	0.7890689193183376	-0.010337249702338552
3
Time Step: 480
Ar	-0.03685432644374303	-0.05638164178067652	-0.009884449368949073
Ne	0.784834496339743	-0.010551360091955949	0.7659740917258174
Ne	0.799078653633412	0.7816388842255738	-0.011971995298044208
3
Time Step: 500
Ar	-0.01693938835718252	-0.0445538148096743	-0.0017973382533907525
Ne	0.7761882735425311	-0.013609173584382777	0.7603856824210324
Ne	0.7878099383440634	0.7728688707469986	-0.014470697108817442
3
Time Step: 520
Ar	0.0022783504627811573	-0.03161114424595088	0.0044777300028495046
Ne	0.7693824104881911	-0.017995279088373676	0.7579659248706838
Ne	0.7753980625784398	0.764312305687266	-0.018326007814708712
3
Time Step: 540
Ar	0.015791903849720467	-0.01977412815225553	0.00615426729609346
Ne	0.7672715081005945	-0.02384393080618725	0.7617036742009009
Ne	0.7639954115790972	0.7583239413113844	-0.0237402944381697
3
Time Step: 560
Ar	0.0192897445026854	-0.012036834599903871	0.0019148143967067323
Ne	0.7712083439990511	-0.030697783838509227	0.7724943631316796
Ne	0.7565607350276756	0.7574405007913545	-0.030291530469561626
3
Time Step: 580
Ar	0.012515893465889272	-0.010316194998662001	-0.006579676241331276
Ne	0.7795484424227699	-0.03749024828046132	0.7876269259973505
Ne	0.7549944876407528	0.7625123256320646	-0.036929602697194565
3
Time Step: 600
Ar	-0.0007332352782954059	-0.013786629959830429	-0.01635837002434754
Ne	0.7892909220783489	-0.04304071410482327	0.8029198714772913
Ne	0.7585011367293587	0.7715332264175951	-0.04244385439411906
3
Time Step: 620
Ar	-0.01576064372508834	-0.019934873091337627	-0.025237535339633296
Ne	0.7981767283973976	-0.04654165804344165	0.8153066217349585
Ne	0.7646427388571028	0.7811824134877206	-0.04595143933650056
3
Time Step: 640
Ar	-0.029208644968905795	-0.026492369601946276	-0.0321280400728421
Ne	0.805050822667401	-0.04760458946909724	0.8232436474306175
Ne	0.771216645830917	0.788802841423985	-0.046997960298950696
3
Time Step: 660
Ar	-0.039250028709096864	-0.03207587472125405	-0.036585918693725385
Ne	0.8094331800024241	-0.046094779433448356	0.8261161947299919
Ne	0.7768756722360851	0.7928765365076437	-0.045412628977441534
3
Time Step: 680
Ar	-0.045032508742348994	-0.0359896970514863	-0.03845457639674522
Ne	0.8111523260559713	-0.0420055325298327	0.8237460938799236
Ne	0.78093900621579	0.7927011119342602	-0.04117387042435327
3
Time Step: 700
Ar	-0.046230354621460364	-0.037944582206406646	-0.03769753712093622
Ne	0.8101684395660536	-0.0354306499852919	0.8161873248454651
Ne	0.7831207385848191	0.7880811145446397	-0.03437214066570355
3
Time Step: 720
Ar	-0.042854663676518	-0.037908677242191643	-0.034357751140208836
Ne	0.8065293112002233	-0.026650602615030168	0.803768149109373
Ne	0.7833841760057071	0.7792651622101631	-0.025292750910338894
3
Time Step: 740
Ar	-0.03530022921879353	-0.03609455515029102	-0.028617438774384975
Ne	0.8004330655052603	-0.01639723321459996	0.7874185340139797
Ne	0.7819259872429457	0.7671976707178323	-0.014683448180769424
3
Time Step: 760
Ar	-0.02463564382302918	-0.03306303173751206	-0.020984376791399553
Ne	0.7924223667806631	-0.006398281021356992	0.7694088830961398
Ne	0.7792721005717783	0.7541671951118104	-0.004306859245914905
3
Time Step: 780
Ar	-0.013069957819413405	-0.029867281599354093	-0.012614440925941718
Ne	0.7837108995666957	4.5787808040275574e-05	0.7542533470527755
Ne	0.7764178817821299	0.7445273761442551	0.002478740931991726
3
Time Step: 800
Ar	-0.003986975990337976	-0.027913510768367244	-0.005485229927853105
Ne	0.7763349888112738	-0.0009116891123890233	0.7478349132177828
Ne	0.7747108107084762	0.7435310822336976	0.0017679637688955553
3
Time Step: 820
Ar	-0.00035769431475306853	-0.028125345637510336	-0.0016441133831250924
Ne	0.7723636813226932	-0.009931791352412048	0.7528837079692254
Ne	0.7750528365214723	0.7527630193428636	-0.007121947527274883
3
Time Step: 840
Ar	-0.002373463001482234	-0.03011062974527173	-0.0016745979620928575
Ne	0.7723546610313055	-0.02346398351419869	0.7664068798396247
Ne	0.7770776254995889	0.7682804956124115	-0.020614634818706415
3
Time Step: 860
Ar	-0.007570955223657247	-0.03258930501390093	-0.00439341491563868
Ne	0.7750665781411984	-0.03756760127780272	0.7832224147131215
Ne	0.779563200611871	0.7848627886446448	-0.03471135273865752
3
Time Step: 880
Ar	-0.013010862763689629	-0.034359449688073196	-0.00806317778149879
Ne	0.7787080228321003	-0.05006254298523338	0.7993588011114542
Ne	0.7813616634610016	0.7991278750262478	-0.047177976271130274
3
Time Step: 900
Ar	-0.01661071634653849	-0.03468127788537861	-0.011341203167042234
Ne	0.7819071489836834	-0.060096493111333894	0.812591877389138
Ne	0.7817623908922674	0.8094836533496538	-0.057133027163270574
3
Time Step: 920
Ar	-0.017244212745180103	-0.03321396959076455	-0.013442007860297912
Ne	0.783869497905387	-0.06741224857118108	0.8218699817706886
Ne	0.7804335383692055	0.815332100514887	-0.06431032685156549
3
Time Step: 940
Ar	-0.014476019942121852	-0.029894973618286993	-0.013992811029717238
Ne	0.7842247793769909	-0.0719591340132366	0.8267721486843478
Ne	0.7773100640945432	0.8165599899844651	-0.06866169059580562
3
Time Step: 960
Ar	-0.008393313660567768	-0.02490369263162313	-0.01290138573482701
Ne	0.7828912843288869	-0.07373685145654157	0.8272163710795487
Ne	0.772560852861093	0.813346426441106	-0.07019733828589673
3
Time Step: 980
Ar	0.00036326658988730296	-0.018735125989466417	-0.01031337212652865
Ne	0.7800353063795161	-0.07274772888783616	0.8233712705614726
Ne	0.7666602505600089	0.8061887372302439	-0.06894025137611884
3
Time Step: 1000
Ar	0.010370243382039755	-0.012381181829736656	-0.0066603394941059475
Ne	0.7761252772583699	-0.06900509905084684	0.8157186116033369
Ne	0.7605633028890029	0.7960921632335248	-0.06494062505040575
3
Time Step: 1020
Ar	0.01911717607038775	-0.007521409308910557	-0.0027731793265840425
Ne	0.7720484472204066	-0.06258385542464161	0.8052205379391686
Ne	0.7558932002386183	0.7848111470864935	-0.05832971155375911
3
Time Step: 1040
Ar	0.02313977711905439	-0.00632662646216975	5.4638875341801783e-05
Ne	0.7691551264433012	-0.05370125045298988	0.7934446121904115
Ne	0.7547639199670574	0.7747337592681011	-0.04938160400692766
3
Time Step: 1060
Ar	0.019421840020115565	-0.010345308978280227	0.00035538429251346883
Ne	0.7689217001269114	-0.0427913535346842	0.782301288955716
Ne	0.758715283382386	0.7678425448659058	-0.03853902618940407
3
Time Step: 1080
Ar	0.007581153547331711	-0.019154888234865282	-0.0026757229236853116
Ne	0.7721035581258661	-0.030561006531992348	0.7732527999519788
Ne	0.7673741118562152	0.7644217771197988	-0.026459429969468044
3
Time Step: 1100
Ar	-0.00970471396057698	-0.030620918607971972	-0.00849556005848729
Ne	0.7781137104466392	-0.018101161486015527	0.7668031072267751
Ne	0.7786498270433506	0.7634279624469287	-0.014189900109462446
3
Time Step: 1120
Ar	-0.02860450094171348	-0.04241278979206927	-0.015603475855526473
Ne	0.7854316686620721	-0.006992239401132328	0.7630121433573249
Ne	0.7902316558090537	0.7641109115461426	-0.0032910204429731573
3
Time Step: 1140
Ar	-0.04595247010680457	-0.05290605610416018	-0.022458178708526632
Ne	0.7924824727773832	0.0009340530589653782	0.7621366550125384
Ne	0.8005288208588338	0.7666778853981356	0.004439170754813742
3
Time Step: 1160
Ar	-0.059756006638577296	-0.06120268444240524	-0.0279650869020543
Ne	0.798118825248849	0.004356859622517732	0.7643502009204521
Ne	0.8086960049191407	0.7715517071728284	0.007732533040427848
3
Time Step: 1180
Ar	-0.06895635898116188	-0.06687719140100125	-0.03149093228604288
Ne	0.801664091813415	0.003237377348209612	0.7690149497593264
Ne	0.8143510906971592	0.7783456964057323	0.0065936295855421705
3
Time Step: 1200
Ar	-0.07307031142598372	-0.06975979414943849	-0.03272228198242747
Ne	0.8027899806843247	-0.0012474676616851584	0.7746256836401312
Ne	0.8173391542710711	0.7857131441640642	0.002214245401122023
3
Time Step: 1220
Ar	-0.07192877621852975	-0.0698009800931996	-0.03153956083121238
Ne	0.8013856009875713	-0.0075023918889089	0.7794762281706017
Ne	0.8176019987603705	0.792009254335049	-0.0038190202805635344
3
Time Step: 1240
Ar	-0.06554077738425594	-0.06700035224819192	-0.027952189841946265
Ne	0.7974793102663166	-0.014183127920527156	0.7822506734809653
Ne	0.8151202906473516	0.7958893625216595	-0.010180836580193272
3
Time Step: 1260
Ar	-0.05408355380921378	-0.06138742744967068	-0.022107891065425295
Ne	0.7912404726087137	-0.020398839381974496	0.7822275472848098
Ne	0.8099019047299125	0.7964921491845858	-0.016002009160558738
3
Time Step: 1280
Ar	-0.03804993253659421	-0.053059572681760356	-0.014402124560716045
Ne	0.7830878551679782	-0.025655825390849887	0.7793319158529494
Ne	0.8020209008980288	0.7934212804255507	-0.020812144233407676
3
Time Step: 1300
Ar	-0.018640301751510827	-0.042311929525711695	-0.005740136931681311
Ne	0.7739520604680798	-0.029765233773632882	0.774305529535834
Ne	0.7917470648128436	0.7867830456522851	-0.024447745545327144
3
Time Step: 1320
Ar	0.0015252992376659463	-0.029933451544262614	0.0020469860760463786
Ne	0.7656859500819809	-0.03280129891161973	0.7690754842877218
Ne	0.7798475742097658	0.7774406328088231	-0.027004823304942683
3
Time Step: 1340
Ar	0.017774728015076513	-0.017707215938211486	0.006070179247405797
Ne	0.761183671437402	-0.03508608706824717	0.7668579937997702
Ne	0.768100424076934	0.7674991853593992	-0.028810525988350526
3
Time Step: 1360
Ar	0.02448748840178025	-0.008686344428202387	0.0037620681241003918
Ne	0.7630160475411344	-0.03702865546970248	0.7706329383049578
Ne	0.7595552875864977	0.7604208822508451	-0.03027735937023308
3
Time Step: 1380
Ar	0.01896717696189131	-0.005872681729240088	-0.004571906014750877
Ne	0.7709250812689903	-0.038694103624165456	0.7802074201872772
Ne	0.7571665652985307	0.7592726677063458	-0.031517867113700894
3
Time Step: 1400
Ar	0.003972705936803408	-0.009504548724972557	-0.01593451004410632
Ne	0.7819454873555501	-0.03960532951452059	0.7921390521641921
Ne	0.7611406302370585	0.7638157605924334	-0.03208689506126051
3
Time Step: 1420
Ar	-0.014929939943028108	-0.016978707277547155	-0.02736299737136324
Ne	0.7930753046725195	-0.039131899425753326	0.8027954393923946
Ne	0.7689134587999205	0.7708164890562406	-0.031314794962206065
3
Time Step: 1440
Ar	-0.03315682463198752	-0.02540472592377793	-0.03716386341409188
Ne	0.8025768271347242	-0.03685670496251848	0.8100217673913649
Ne	0.7776388210266749	0.7769673132392366	-0.028740256918447483
3
Time Step: 1460
Ar	-0.0481332433283344	-0.03294848968691637	-0.044596518347300315
Ne	0.8096950161903331	-0.03263006485259507	0.8129133163370503
Ne	0.785497050667413	0.7802844368924516	-0.024199150930924538
3
Time Step: 1480
Ar	-0.05866721466552055	-0.03869640416794934	-0.049382575203453474
Ne	0.8141559404795241	-0.026532541693592798	0.8112767174672388
Ne	0.7915700977154081	0.7799348282144825	-0.017776495204960097
3
Time Step: 1500
Ar	-0.06426401100931843	-0.04224767568362004	-0.05142810003158061
Ne	0.8158785706860235	-0.018908232105129232	0.8053750380852748
Ne	0.7954442638527067	0.7758617901416897	-0.009829290994868596
3
Time Step: 1520
Ar	-0.06475819767114631	-0.043460850657882445	-0.05070911171914607
Ne	0.8148579608828871	-0.010523043078649713	0.7959692392556588
Ne	0.7969590603176712	0.7686897760894725	-0.001142480477687164
3
Time Step: 1540
Ar	-0.060196227872191595	-0.04235627004710815	-0.04725172253096561
Ne	0.8111458163109116	-0.0028436193137045596	0.7845776709187382
Ne	0.7961092350906916	0.7599057717137534	0.006791698671053045
3
Time Step: 1560
Ar	-0.05089531936396705	-0.0391254428403428	-0.04118164122950639
Ne	0.8048947626470566	0.001786463245564271	0.773696534695614
Ne	0.7930593802463224	0.7520448619477189	0.011602753592717917
3
Time Step: 1580
Ar	-0.037639070251707936	-0.03421054781161833	-0.03284028714597171
Ne	0.7964547772001281	0.0007802221295972458	0.7662627903646523
Ne	0.788243116580992	0.7481362080349612	0.01069514384014473
3
Time Step: 1600
Ar	-0.021927893861913874	-0.028390673147491472	-0.022948985420304473
Ne	0.786519158513272	-0.006874367421104021	0.7639817612284975
Ne	0.782467558878054	0.7499709229215356	0.0030848712506323043
3
Time Step: 1620
Ar	-0.006089432945814711	-0.022751225172272044	-0.012749972479424691
Ne	0.7762902311320491	-0.019531598972182502	0.7664100653983531
Ne	0.7768580253431778	0.7569887064973945	-0.009542445860103133
3
Time Step: 1640
Ar	0.007038458834302257	-0.018407992743416892	-0.003965313128162832
Ne	0.7674748918887243	-0.03426759901419169	0.7723307261970372
Ne	0.7725454728063861	0.7673814741105482	-0.024247766010049264
3
Time Step: 1660
Ar	0.015061413265736935	-0.01602792444661315	0.0016775730064681302
Ne	0.7617883419590609	-0.04870191203955169	0.781078489292734
Ne	0.7702090683046146	0.7794357188391043	-0.03863841524037709
3
Time Step: 1680
Ar	0.017232503855393724	-0.01550763979481993	0.0033283789443317204
Ne	0.7600421587716161	-0.06149075054268652	0.792121144608424
Ne	0.7697841609024026	0.7917042726904461	-0.05133187649393068
3
Time Step: 1700
Ar	0.014782366526382325	-0.016146351729673786	0.0015169535501741852
Ne	0.7616725775209447	-0.07200435617291054	0.8042651689879768
Ne	0.7706038794820855	0.8028565902555239	-0.06166447547932585
3
Time Step: 1720
Ar	0.009975128184023201	-0.017099377429635382	-0.0023372590922233283
Ne	0.7652655510189643	-0.07996573675123288	0.8158195230643189
Ne	0.7718181443264251	0.8117709965338078	-0.06936461691327041
3
Time Step: 1740
Ar	0.004942802393707873	-0.01769462649977023	-0.006774335812403793
Ne	0.769394044946031	-0.08526243191230795	0.8252447121524611
Ne	0.7727219761896734	0.817662940765018	-0.07435272928123209
3
Time Step: 1760
Ar	0.001152625247320405	-0.017524496319116286	-0.010734643139445204
Ne	0.7730346608878931	-0.08785783903655844	0.8314807352185735
Ne	0.7728715373941991	0.8200882177086145	-0.07662844502030304
3
Time Step: 1780
Ar	-0.0006138179249813018	-0.01643499999379195	-0.013590582637071252
Ne	0.7755894010792419	-0.08773920537506655	0.8339168417484303
Ne	0.7720832403751523	0.8188800877217983	-0.07620861205253368
3
Time Step: 1800
Ar	-0.0001460673984189498	-0.014511453353578606	-0.015046378750722235
Ne	0.7767858022446565	-0.08488859722973202	0.8322626347685106
Ne	0.7704190886831753	0.8141059329362504	-0.07309860895896284
3
Time Step: 1820
Ar	0.002250973830189431	-0.012098237747166674	-0.015062553128525792
Ne	0.7766036900956809	-0.07927680225028054	0.8264687276400835
Ne	0.7682041596035427	0.8060809223503869	-0.06728852745273209
3
Time Step: 1840
Ar	0.005717623517895182	-0.009846054334394873	-0.013848086853591837
Ne	0.7752667841525878	-0.07088594630299432	0.8167409657497041
Ne	0.7660744158589304	0.7954378829903289	-0.05877523183728644
3
Time Step: 1860
Ar	0.008771922492313603	-0.008724417000981791	-0.01191542521258648
Ne	0.7732914103767288	-0.05977975692453328	0.8036594025953838
Ne	0.764995490660371	0.7832100562784549	-0.04762633032397159
3
Time Step: 1880
Ar	0.009413481091829639	-0.009856950462660805	-0.010141333151391398
Ne	0.7715367952691117	-0.04626369663160699	0.7883887271948404
Ne	0.766108547168472	0.7708265294472074	-0.03412974698462325
3
Time Step: 1900
Ar	0.0056943731805269215	-0.01405008522163794	-0.00966730630371693
Ne	0.7711055325774296	-0.031203419435051043	0.7728971873066022
Ne	0.7702589177714569	0.7599593870096285	-0.01911223394405943
3
Time Step: 1920
Ar	-0.0032289915716926043	-0.021212077305578562	-0.011428678971995768
Ne	0.77289891775363	-0.01651785267864724	0.7600050057263985
Ne	0.7773888973474764	0.7524358123371652	-0.004458679695576746
3
Time Step: 1940
Ar	-0.01629452559224339	-0.03022526064801322	-0.015481029650111826
Ne	0.7769583369860991	-0.005405882997921264	0.7529524552781416
Ne	0.7863950121355583	0.7503370259988739	0.006646221430796299
3
Time Step: 1960
Ar	-0.03089962321359185	-0.039472149713469545	-0.02083923820600388
Ne	0.782272874228219	-0.001022169248992744	0.7538832787713332
Ne	0.795685572514787	0.7552002013154018	0.011073606493497014
3
Time Step: 1980
Ar	-0.04420291475027037	-0.047521418589397145	-0.02609326086675476
Ne	0.7874012995101747	-0.0037995549378550425	0.7617890897421515
Ne	0.8038604387695099	0.7660268558801914	0.008421818183429564
3
Time Step: 2000
Ar	-0.054151611135880774	-0.053467303387212596	-0.03009607245454968
Ne	0.791204594821435	-0.011185319714976872	0.7729781498305336
Ne	0.8100058398438601	0.7793585054551286	0.001235569682842289
3
Time Step: 2020
Ar	-0.05964031133248637	-0.05687655837199618	-0.03217551766637167
Ne	0.793046292627647	-0.020124643521344306	0.7837591714431131
Ne	0.8136528422342537	0.7917070842462797	-0.007466006717915339
3
Time Step: 2040
Ar	-0.06020331660004518	-0.05759087404057108	-0.03202420726535556
Ne	0.7926511414903044	-0.02857653566242187	0.7918159124468481
Ne	0.8146109986391551	0.8008732920559319	-0.01567405812266635
3
Time Step: 2060
Ar	-0.05572273448429878	-0.05557465609331401	-0.02955984309686624
Ne	0.789956948459624	-0.03548011272533791	0.7960252964790843
Ne	0.8128246095540888	0.805760651171591	-0.022347806323391648
3
Time Step: 2080
Ar	-0.04631112953621421	-0.05085066115906298	-0.024872233083032737
Ne	0.7850646681622383	-0.040350434196041805	0.7960033376524028
Ne	0.80830528490339	0.805906977708044	-0.02701345751054346
3
Time Step: 2100
Ar	-0.032392108000048936	-0.043518914080665085	-0.018284958625265395
Ne	0.7783026440430535	-0.04300914228039521	0.7919000216175714
Ne	0.8011482874864099	0.8012339387139995	-0.029497415933479338
3
Time Step: 2120
Ar	-0.015038586890751205	-0.03388309272620008	-0.010567258870432727
Ne	0.7704365838495809	-0.04348645712358097	0.7845112762672846
Ne	0.7916608265705849	0.7920754322027204	-0.0298263703380249
3
Time Step: 2140
Ar	0.003334962845381962	-0.022763921537459812	-0.003312880323039912
Ne	0.7630403506296183	-0.04205784568653868	0.7756864316102793
Ne	0.7806835100544147	0.7795276495769379	-0.028255904228412534
3
Time Step: 2160
Ar	0.018178654863698317	-0.01205180351311701	0.0008186936709335426
Ne	0.7587301654606385	-0.039357816741131514	0.7686762174958922
Ne	0.7701500032050781	0.7661155026071877	-0.02537726410799914
3
Time Step: 2180
Ar	0.02352064873016968	-0.0049858499170448625	-0.0009052660586673361
Ne	0.760197363692475	-0.03634651686237171	0.7671321158489689
Ne	0.7633408111067703	0.7560382491323555	-0.02210920273147503
3
Time Step: 2200
Ar	0.01609759183521229	-0.00451919220151671	-0.008794980669152935
Ne	0.7677593288437012	-0.03380876394210248	0.7721563280799257
Ne	0.7632019028505019	0.7530338384965582	-0.019243700351946398
3
Time Step: 2220
Ar	-0.0011316312884306686	-0.010347145137216195	-0.020196250857096424
Ne	0.7787907951713433	-0.031800452696381425	0.7811794831618469
Ne	0.7693996596465027	0.7568534801865368	-0.016865585245924037
3
Time Step: 2240
Ar	-0.021976550555463173	-0.019383769316010834	-0.03200454594533427
Ne	0.7902097396312715	-0.029829495936789484	0.7906274708621832
Ne	0.7788256344536071	0.7639191476057394	-0.014505277858022587
3
Time Step: 2260
Ar	-0.041586807046244345	-0.028699347130558488	-0.042299224621567766
Ne	0.8001252182880432	-0.027370909254769017	0.7980843628369345
Ne	0.7885204122876167	0.7707761387382667	-0.011667491156540175
3
Time Step: 2280
Ar	-0.05742990019730828	-0.03662712587352843	-0.05021453902966172
Ne	0.8077007526814984	-0.0241207434177582	0.8024097313933795
Ne	0.7967879710452253	0.7754537516442257	-0.008077545304890889
3
Time Step: 2300
Ar	-0.06842830270895407	-0.04241201513793035	-0.05542805227690556
Ne	0.8126344599151429	-0.020040836338329034	0.8032635315475948
Ne	0.8028526663232265	0.7771587338291984	-0.0037178322118625977
3
Time Step: 2320
Ar	-0.07417479592383287	-0.04574976035284965	-0.05783680027686499
Ne	0.8148363116207796	-0.015370608460146169	0.8007951553750481
Ne	0.806397307832469	0.7758262511659346	0.001159291960643412
3
Time Step: 2340
Ar	-0.07453673031407607	-0.046535421358525474	-0.05741307366143238
Ne	0.8142867527287398	-0.01067110931959361	0.7955460973424555
Ne	0.8073088011147521	0.7719124130310578	0.005984623377803321
3
Time Step: 2360
Ar	-0.06951842857825824	-0.04476818582477984	-0.054162007459360215
Ne	0.8109948252582627	-0.006879272450692869	0.7884623330030772
Ne	0.8055824268494115	0.7663533406284114	0.009817321515109032
3
Time Step: 2380
Ar	-0.059287743203499325	-0.040554391364317516	-0.048145116545063614
Ne	0.8050187648003803	-0.005259903947677009	0.7808669040421792
Ne	0.8013278019325349	0.7605201776649332	0.011395859561710556
3
Time Step: 2400
Ar	-0.04435360440695854	-0.034193068912394944	-0.039572300200445436
Ne	0.7965523677766367	-0.007070778217244199	0.7742113812880028
Ne	0.7948600601597376	0.7559697294825777	0.009478565971268789
3
Time Step: 2420
Ar	-0.025923226655904897	-0.026347169803766935	-0.028987821558019846
Ne	0.7861079830997377	-0.012922850957242353	0.7696190693511021
Ne	0.7868740670855829	0.753975903113948	0.0034863992657439614
3
Time Step: 2440
Ar	-0.006402187632368798	-0.018255192078403214	-0.017558760259847497
Ne	0.7748128958910786	-0.02230023144884041	0.7677013626340411
Ne	0.778648115270706	0.7552613058801827	-0.006024955315367509
3
Time Step: 2460
Ar	0.010360693117298066	-0.011739583334760157	-0.007311488253823717
Ne	0.7646608049131136	-0.0337770000723984	0.7690260402796346
Ne	0.7720373254990038	0.7602224657600976	-0.01759690496698454
3
Time Step: 2480
Ar	0.02010741679968792	-0.008548391772084786	-0.0007559561341092413
Ne	0.758135379220649	-0.04571604176594665	0.7744396562807186
Ne	0.7688160275090783	0.7689703158909703	-0.029566053087783022
3
Time Step: 2500
Ar	0.020819699383277927	-0.009167515514021217	0.0005754501914172049
Ne	0.7567401227761608	-0.056780912707130836	0.7841092707774144
Ne	0.7694990013699768	0.7806543105740907	-0.040567073910005316
3
Time Step: 2520
Ar	0.014277165999511938	-0.012493144282649301	-0.00264145442372068
Ne	0.7597949755888596	-0.06603677568476245	0.7964199865677452
Ne	0.7729866819410441	0.7932358023203504	-0.04966088508519814
3
Time Step: 2540
Ar	0.00430461903984099	-0.016816720016799947	-0.008290425649240962
Ne	0.7652221890318657	-0.07290310292844908	0.8087135272544378
Ne	0.7775320154577089	0.8044257052981877	-0.05630545454637054
3
Time Step: 2560
Ar	-0.005697891611137366	-0.020758553809170653	-0.014351102507848606
Ne	0.7710518842945205	-0.07708951899661046	0.8187296385852544
Ne	0.7817048308460324	0.8125539551587199	-0.06026088901857929
3
Time Step: 2580
Ar	-0.013597132333471727	-0.023488235927082542	-0.019520661112271086
Ne	0.7760178825879874	-0.07848875065685827	0.8250948685389695
Ne	0.7846380732748997	0.8166828689368795	-0.06145656036787182
3
Time Step: 2600
Ar	-0.018298894259971856	-0.02459829814805253	-0.023112360817801235
Ne	0.7794542503109547	-0.07707160137966433	0.8271140869847435
Ne	0.7859034674784322	0.8163757818806556	-0.05988407910811526
3
Time Step: 2620
Ar	-0.019383412661574135	-0.023966735520455175	-0.024828441847000893
Ne	0.781073804042252	-0.07282706553386219	0.8244891048702386
Ne	0.7853684321487374	0.8114996834072561	-0.05554301596441053
3
Time Step: 2640
Ar	-0.016923536487223362	-0.02170829414413738	-0.024627007048967933
Ne	0.7808387863981376	-0.06575486782112616	0.817181889513388
Ne	0.783143573618501	0.8021690443182022	-0.04843723540559286
3
Time Step: 2660
Ar	-0.01152586415866876	-0.018229794171464957	-0.02270783469308578
Ne	0.7789466079318456	-0.055923863827967144	0.8054587070539364
Ne	0.7796380797562386	0.7888595403523708	-0.03863322530202368
3
Time Step: 2680
Ar	-0.004584709173098537	-0.014385229983615461	-0.019611243895365078
Ne	0.7759238669853077	-0.04365414931162525	0.7901662515910567
Ne	0.7757196657172063	0.7727452616481795	-0.02643736063686426
3
Time Step: 2700
Ar	0.0013876611527263271	-0.011635250862839255	-0.016388852690316418
Ne	0.7727875833816807	-0.029946008476247465	0.7733218271520518
Ne	0.7728835789950084	0.7562871416920253	-0.012815327402908088
3
Time Step: 2720
Ar	0.0029873798647340843	-0.011819751910739754	-0.014604632930408134
Ne	0.7710416103486746	-0.017191671438463	0.7588215170812611
Ne	0.7730298333160068	0.7437173057021412	-9.923709202544701e-05
3
Time Step: 2740
Ar	-0.0022539600521850386	-0.01602987167483525	-0.015635853083231708
Ne	0.7720010299939792	-0.009298375392252763	0.7518876406803555
Ne	0.7773117535876212	0.7400341294200263	0.007865859461703687
3
Time Step: 2760
Ar	-0.013431499996333187	-0.023398620621995596	-0.019444644080219446
Ne	0.7756085526206414	-0.009185152720661385	0.7553819406354262
Ne	0.7848817709051072	0.7472896556955951	0.008180350503620436
3
Time Step: 2780
Ar	-0.026829377152758082	-0.03172488672240631	-0.024516255136233546
Ne	0.7803884073351673	-0.015652463331554768	0.7666291059608453
Ne	0.7934997933470065	0.7620832324068995	0.002004796234215328
3
Time Step: 2800
Ar	-0.03882525533953296	-0.039093739916856295	-0.029143280128558362
Ne	0.7846997329209205	-0.0250305448372628	0.7803185130523063
Ne	0.8011843459480283	0.7788301671070573	-0.0070575858649210245
3
Time Step: 2820
Ar	-0.04726926081375466	-0.0444579894822758	-0.03222303603736048
Ne	0.787493365661559	-0.03437842130811405	0.7924600222637963
Ne	0.8068347186816117	0.7935422931433279	-0.01611933916760878
3
Time Step: 2840
Ar	-0.05118796734233953	-0.047378647738816275	-0.03322108430940484
Ne	0.7882644428607483	-0.04216176648817937	0.801014444643051
Ne	0.8099823480110073	0.8042462965799335	-0.023675713274819255
3
Time Step: 2860
Ar	-0.050234937531121925	-0.047706264186221634	-0.03194043805078182
Ne	0.7868293403434607	-0.0477166408136388	0.805134216451223
Ne	0.8104644207170774	0.8101287873527985	-0.029076131341614173
3