256
Time Step: 5
Ar	19.39030236755026	0.6649332527377156	3.374165821274219
Ar	6.3703755562610125	1.2547234818299675	6.326830276375265
Ar	5.330105636229491	12.55900874460912	7.564673272884315
Ar	16.08918367055371	8.797199689867014	9.576209944111406
Ar	2.202276509764917	14.25948386083767	8.745729134217175
Ar	19.165595340000472	14.038365896875865	16.361869829038877
Ar	2.543948231732616	5.8834904487470165	14.8919248513972
Ar	8.400197132177603	21.199589778540815	10.212027308160948
Ar	18.210802779046844	16.929566567828836	15.10970575448403
Ar	4.215386211112263	11.559991196317112	0.1576550646203283
Ar	16.243812594840044	16.560919135217347	7.261064372704619
Ar	7.098384066915304	10.147653105879717	20.232571630325488
Ar	20.36117095452978	3.6594437845501555	16.284013314663323
Ar	2.9771625511089903	18.653784715351325	13.128394194096767
Ar	16.00327470844607	9.98002427054753	3.1023742158061856
Ar	2.438737411403195	0.39330942048438866	11.655363243753229
Ar	17.645710090191002	20.346315183919028	19.948990578836934
Ar	5.507171601656273	5.296035554878004	12.170111177668936
Ar	5.789831732320444	1.1836197592062292	12.907944437241882
Ar	2.645982195639409	20.75542541584823	15.684480272650463
Ar	5.581600100812208	19.237532258429205	11.149176851178849
Ar	11.3367075055202	8.538463382075962	5.485672423036157
Ar	11.024982930259704	16.522681516708488	4.050749798349427
Ar	12.455249582996165	16.12720209266679	9.120692446837436
Ar	20.387675551110572	18.680784779342975	18.870868565458718
Ar	8.882754290788442	17.314290626301812	20.33095904921507
Ar	16.864569217718177	1.3139504128990744	1.4692509128151088
Ar	9.842274265561601	8.20000328384588	20.620251970248077
Ar	4.787916304701348	5.297526451697555	0.3455912053793438
Ar	9.887032548304502	5.562309239291283	18.38379267286421
Ar	20.96736570644907	15.564869575764503	6.356831035043261
Ar	5.030675578705606	1.8980529717099248	2.342394069903824
Ar	0.7857680258696685	14.673104031410784	18.024347151285912
Ar	6.951300531262133	6.77131840795019	19.79103137749128
Ar	0.07352798538239996	11.966834088712787	15.382090385826412
Ar	2.8423681309542905	3.3618764618523826	17.65709442042412
Ar	19.409024160576497	10.938342704617115	4.043965486152354
Ar	15.462345658809282	4.769427566092709	7.702435276317777
Ar	5.996174022260275	15.76225730309338	14.011876910993095
Ar	6.820249900416366	19.4859263687771	14.24042095682967
Ar	5.734839842403672	21.082345416403964	16.87856688379259
Ar	11.211210951697616	15.318938531012444	0.7075011068057345
Ar	18.237624760250043	13.79853948195215	6.245747377024771
Ar	11.40788416698735	19.934798393721124	3.1752130345954814
Ar	12.27482794733671	12.154728704679005	12.901772538176578
Ar	18.255767220834855	1.846653803431718	13.9938108888932
Ar	0.4180246294505854	2.7556463177392456	5.077013635670266
Ar	17.04012651985962	17.144531778647625	11.630784552596726
Ar	14.505945534034497	20.972380977909523	3.384555252533324
Ar	10.924701826331741	14.271958564790376	6.594723365474837
Ar	4.588744259686203	3.8809059282522895	6.927496400045074
Ar	10.77083670219193	1.5832799408221945	12.278313918013822
Ar	3.3219782093657093	19.353833380480864	1.6045461957636857
Ar	9.343868591576184	17.174341919936793	8.476380576994957
Ar	2.824605251212399	13.560769320075744	5.669130737300707
Ar	2.8141853107176	4.254610991808056	3.1813681186999463
Ar	18.80670016165846	1.9621597088042757	7.962272744806376
Ar	1.449929494964786	11.341014380732295	3.4164878839737587
Ar	1.2816067957125457	1.1541133720505112	2.3206244282927035
Ar	11.035677016329986	13.236564491472556	3.5071415949964235
Ar	16.24628730080489	3.9187714642162708	20.129169523332084
Ar	13.855197009953386	17.565772806071365	12.579760661494644
Ar	4.551470625075777	5.924616781106927	17.917880858849024
Ar	1.1875920351888125	6.334466661285468	18.228520800711742
Ar	16.600196554076806	7.779652419715825	19.14567630836099
Ar	8.88953708946325	11.578750011992922	6.366963197681824
Ar	17.766297388578256	20.44148514830367	11.249477655092008
Ar	21.2246512300899	5.736361365162851	12.092337729690538
Ar	18.541437283182212	10.672087017685039	14.00991731146774
Ar	13.498404959523505	8.06807206003226	12.329733615482633
Ar	3.420901563364606	8.514589854352227	19.6874954395115
Ar	12.634123346536928	1.6156355304934678	5.640275153916337
Ar	21.080816287377885	12.229247728003699	7.704503737402955
Ar	16.2890196611269	8.111303435585143	15.434171374972907
Ar	16.193971674368612	2.1613768754338802	11.178659803477043
Ar	13.940337882214058	11.25457879561648	5.71180387835111
Ar	1.305449842827816	2.2000731569663334	8.107431880801457
Ar	2.7663007935822086	14.844028784772771	11.996833768719785
Ar	20.992826093104195	5.077166239120322	7.685982113412154
Ar	11.296074688984328	15.531447010837248	12.907149733468149
Ar	12.437046931240069	0.1623370157411718	14.921016227998635
Ar	8.165404912756562	17.900709621031957	5.061197051128278
Ar	19.602563548536903	18.802125010570826	3.9638128445016467
Ar	14.723140256193897	19.664071847831625	17.225941975341104
Ar	13.178217213586821	13.106505984569436	20.159833841860493
Ar	13.204868870581347	7.6905009849649435	3.0955193447283196
Ar	16.44293823383156	14.915149306115318	20.77524376228563
Ar	14.155526962764807	20.758590338984735	11.94165879276331
Ar	9.852883067897034	12.716061580862005	15.669851212203964
Ar	21.051181762476247	19.90644089407284	0.40259477200219673
Ar	5.926808063680436	5.295152407956638	3.873624107800459
Ar	20.417182568276303	15.13233380855975	9.695016276006449
Ar	2.8753018833850827	8.281816323548885	2.5564570382887144
Ar	19.07228549701272	5.494552843069212	21.034628041444833
Ar	14.329257976511473	14.4697085370452	11.93568753147864
Ar	19.422696366908426	18.008980058046355	7.600978764263576
Ar	5.3943400420840595	16.67403903603949	3.886811179567778
Ar	19.691269848468444	15.7321257083507	20.257969669563103
Ar	15.479182593573917	12.013453388149312	14.912202507165501
Ar	16.10997608233691	4.67727697285576	2.93778183323456
Ar	18.28871455286126	7.016625029773943	7.892620589878524
Ar	3.920231867783437	14.354170583413868	19.482468316940693
Ar	12.780036338037508	4.59304348993802	4.336885618978274
Ar	21.11067148298078	12.836205173682112	12.074158506941608
Ar	21.097504275942644	8.139843355217533	9.422778225176843
Ar	2.623800023299191	3.590995139570942	11.312815847041348
Ar	8.114217172865906	4.2221646173193745	6.003626388546468
Ar	16.65372745747388	1.9835356867649783	5.169610675301618
Ar	18.123042392216778	17.94775514978856	0.850826109383024
Ar	18.691852423229346	4.9459388808877565	5.189598254169
Ar	9.1091246221015	10.715333704113403	12.046631968057262
Ar	21.031101336093332	0.5027495743619343	16.746753038530535
Ar	11.971690883187412	5.497083615516715	0.7058808311941887
Ar	7.418474130408409	12.39712635395771	2.8867063934883186
Ar	8.536677141623416	16.593148387570583	11.647437923172001
Ar	8.488594650592137	3.285551656246867	9.48878367947811
Ar	20.42630181307929	20.582690423386268	9.267556631807677
Ar	1.0658515370256185	16.838163942297115	2.669664576171466
Ar	2.0289643608608796	17.74730307387547	5.651188284343401
Ar	9.452455226539136	20.857376991295677	6.460703063833529
Ar	7.111422926999567	13.765023493573343	20.834954777232838
Ar	2.3935403159022486	10.0924954733745	6.9173299652016045
Ar	15.078387621111244	18.765388770117813	9.526280766417509
Ar	16.032764466170025	19.644614946109023	14.11073495512549
Ar	18.501315116835737	4.454229020867177	10.185470993146412
Ar	20.322366438318145	18.060635970759453	12.12156839819864
Ar	11.638623911133989	20.283949875142667	9.209014181832526
Ar	15.626001401874245	7.261650253861629	0.7786951621233952
Ar	18.77973929084292	9.028514076757643	0.1500617006991498
Ar	14.698803787358344	0.6561863598643897	8.371219120245431
Ar	11.613742938856122	21.318064539182643	18.175944637545633
Ar	10.391806415060914	9.738582019198484	2.512187735840609
Ar	8.593688242885438	7.457081961337138	12.680975082278225
Ar	0.6739372239825209	6.331695048834387	4.730309154159927
Ar	10.524376837467136	19.353557450774833	12.813169250677536
Ar	7.195392747632697	15.180640774198707	6.821709307867771
Ar	17.497534653555732	14.184204336031426	9.639587797529908
Ar	10.21604943736217	1.8405099724830964	21.013023071906353
Ar	8.673794599396532	19.567551980228174	17.515442823031634
Ar	17.584719121840116	17.30689405683174	18.304018401100418
Ar	6.604803872905887	16.169143781454096	17.978225994942306
Ar	17.493134577222794	13.952795568616738	13.121152888377285
Ar	20.882697380665665	1.5264050533697477	20.11101802590296
Ar	4.0473693130093835	12.974315745235451	16.55614357858386
Ar	13.02959317743205	9.710567731945218	0.4607653091177567
Ar	11.49901906314405	18.080726787923957	16.721745897791397
Ar	0.36066734183864285	10.450543953391657	0.17051781359408077
Ar	17.656325293288514	5.1489933449638094	17.206814532449133
Ar	6.339573679997458	6.044659551583426	8.850200699425272
Ar	1.9352333302842335	17.34102881727997	19.856426045283506
Ar	11.559873911129712	19.827697898560025	21.108091379757262
Ar	5.880993510889667	19.33128498199276	20.2011962507648
Ar	16.971686475726475	19.939805473207365	6.576984102589381
Ar	17.10402923511402	16.56866368765087	3.838162103816931
Ar	20.979526731212285	2.3579243510504018	11.533270700936232
Ar	3.364236733914932	20.68268616900107	8.435177444431654
Ar	1.7062819998388024	11.470560596833904	18.32928178159664
Ar	9.059660029305846	0.6296602723373864	14.818597161510727
Ar	2.102356615405981	3.519790083302468	21.060783684295256
Ar	5.190258990935469	9.153610611939246	8.658389063477706
Ar	6.592319629578448	19.24467777656696	7.964150922541642
Ar	8.712127557738542	1.3500596106718716	2.9206415113576805
Ar	20.51855473593241	8.840510796102459	18.00449527509219
Ar	15.874329241701247	11.40204151207746	20.284259122415342
Ar	13.166224272542498	7.513156282322027	19.07647490641644
Ar	7.308377215441972	7.634944384832525	5.863134901338691
Ar	2.7673834925605836	6.392855948903006	8.663613384657564
Ar	4.922399224240217	10.550765013187482	4.866279264648884
Ar	18.283120555601414	12.296749598283217	0.8379237772607895
Ar	17.68292832708936	7.184464143931802	12.065736513485172
Ar	9.959390669644458	12.393014112750825	0.19085332664658206
Ar	9.185867800173327	16.293470843077937	15.4521292621291
Ar	14.717568394104378	0.48855047056418544	19.770587871252033
Ar	9.394766741004549	7.959632919921097	8.689118328447814
Ar	10.764361339306845	10.773030490100664	18.561917107570782
Ar	5.308812097207417	9.893907409032598	17.461746262450436
Ar	8.528799841824373	8.537410958417334	17.101623094734283
Ar	7.292559606254734	12.413652973356914	18.00315491259029
Ar	13.016977512485386	7.089147489880348	8.877709196548917
Ar	21.069715923847994	18.443554680536728	15.54194270615529
Ar	0.0494487161805188	9.374284362225579	13.139618016080883
Ar	7.269714619946329	8.0695057464789	2.307355781886471
Ar	10.033980976990872	12.950422454433257	9.577267021903639
Ar	5.849528236568489	6.993297414559041	15.132921751174953
Ar	20.03836890203013	14.560024706680716	2.7091202236975924
Ar	0.2774508982853588	20.804868733795267	5.871875498467765
Ar	21.07418822918827	15.446184421760355	14.042841325206568
Ar	13.587515087194861	2.152038436694833	1.0495302395119626
Ar	20.951622654943712	20.88317983087576	13.499678285978812
Ar	8.669753653377935	3.960362127469247	13.16712524960292
Ar	2.9727802296842105	11.753511861258596	13.800798543584081
Ar	17.65781445571425	10.7043342530936	17.502761865370847
Ar	16.42936847389536	4.5377524425287294	13.64826045518746
Ar	11.732334765854409	2.6040423249270206	9.109466206802427
Ar	14.318874823794946	15.95620261145039	1.8387552527698492
Ar	1.458254454791285	18.228579289447175	9.847710164811902
Ar	18.653537782994274	7.7580249684591	3.2789816417404305
Ar	6.255274701146209	15.027490370895597	9.855976564540788
Ar	10.032548924192874	14.29731800914668	19.131334639535353
Ar	13.946800575687076	14.854517966091445	5.080516530812888
Ar	1.0266989529983175	6.807708230735267	0.27072452513824696
Ar	15.044035655183361	18.57958952018347	0.017417340929062507
Ar	13.406302476621715	3.140633295832122	13.043210626686085
Ar	20.02315519173019	12.608448087934379	19.336719135573908
Ar	5.354962546150107	11.696182151529248	11.469892137488957
Ar	16.67772798774229	13.568916347693834	3.254513618469962
Ar	20.203393836766324	3.7695235723581497	2.124652453500943
Ar	5.445824116321443	3.5797459330457695	15.475294594143664
Ar	14.885136351080657	16.419255661852706	15.643531658039976
Ar	5.398787530757707	2.1002644426671866	9.94121813375765
Ar	15.843241993992576	11.268841685835717	11.692766266337873
Ar	14.941559707597055	2.254985269987738	16.61496056524309
Ar	9.674445686216291	6.407111458769226	3.8955659593057375
Ar	8.05344286660256	15.518818957241612	2.110401016173184
Ar	8.00541209008954	13.672382746314943	12.804460691566112
Ar	3.426487297642102	0.8067917642558409	4.958493699886333
Ar	14.228143611645377	5.5531198515322355	16.405400772772758
Ar	4.1577228453620325	17.057701082637813	8.373051375235198
Ar	6.731945693854652	10.995744493237247	14.561863847916396
Ar	3.820373146989126	8.41563344910023	11.68531682125355
Ar	10.932651069570221	5.468594385427727	7.306307647764804
Ar	14.978060698962697	5.213946123897757	10.859791520704933
Ar	2.194129924261041	9.05020651892406	15.946744420585068
Ar	11.672200121034095	5.889887114472422	14.114296039633686
Ar	14.514907275832199	13.579886975860168	8.246249238512187
Ar	14.128427355038413	10.385651296877299	17.534623424239307
Ar	8.398049508501755	2.6097562230513707	17.934009149026316
Ar	4.588120911122965	13.935560413552148	2.64646237711412
Ar	7.9399939036557665	4.65084070409307	1.2197566531555608
Ar	17.026862680307772	10.677468193980499	7.275644251111553
Ar	19.10908653110325	10.733651013746131	10.17011901986662
Ar	12.597303187085197	14.21039267130321	16.617272442270504
Ar	3.820463162681169	7.042899575022102	5.692196409613563
Ar	15.226064411715301	7.830048785916227	5.8837869228927175
Ar	3.0536368739771036	16.904586701704375	15.921901112040873
Ar	18.16273065599289	1.788946490698171	18.412942447022704
Ar	1.4068680223975978	2.6966483241983066	14.225926455890697
Ar	12.641624180137548	3.7042796172304424	19.058366024413647
Ar	1.1012128174984053	13.812821613439391	0.2528185054746539
Ar	16.05767076147504	13.396184203429344	17.72847927959655
Ar	11.01196584345164	5.534619077890762	10.747207199386763
Ar	11.959898884741747	10.184908178234947	8.778391706198057
Ar	8.174902309510596	19.703870249626387	1.2949839879770826
Ar	11.640934581108898	9.293499697187178	15.307163620619212
Ar	18.063279616612753	20.26762370203774	16.35736458052011
Ar	13.083499192295454	16.41595929898343	19.1544990184006
Ar	5.526973804578091	1.7851176025094042	20.19116209259833
Ar	13.54801795271921	18.468175243868195	6.463683261067913
Ar	1.9962946665903116	11.112682510179376	10.62729575392678
Ar	11.75606100484742	3.2068452561622403	15.886235973809791
Ar	20.436751845253646	9.118426220260165	6.523125538860115
Ar	5.685338257893928	19.866806172103363	4.2141067567895965
Ar	2.456337911273342	21.144457740971706	20.028848796357924
Ar	5.059810775253635	16.51943414608458	0.574223037394176
Ar	13.734431281563305	12.479967248727725	2.2564205859265156
Ar	19.29090612375306	6.870206281512327	15.026701725935299
256
Time Step: 10
Ar	19.401054773234165	0.6585427048961101	3.3858031160500626
Ar	6.374764267055598	1.2608570593378114	6.304280430431561
Ar	5.343481760964905	12.530207426115439	7.584622351007462
Ar	16.09307242283526	8.806382525654303	9.567915049891777
Ar	2.2099267113342305	14.263978353018796	8.76031539714192
Ar	19.17472120973421	14.015174109188115	16.34549880730774
Ar	2.5507637249389976	5.889028585545906	14.937889965019242
Ar	8.399090146653629	21.20594206274321	10.22790835309746
Ar	18.200966421825658	16.944242799194217	15.10641343452886
Ar	4.193124606103107	11.553865404169871	0.16937654588688417
Ar	16.27891535806822	16.569789254094136	7.2695819844412455
Ar	7.0996365752371995	10.140201592279558	20.232655744769012
Ar	20.37586087048938	3.6481872262569595	16.274066408102296
Ar	3.002528732819507	18.660233068013365	13.096074627364253
Ar	16.005650263612296	9.997884315596178	3.097699627787093
Ar	2.4718087464581315	0.3989219743370471	11.664499100473442
Ar	17.64885440697784	20.342889111542704	19.955550845348835
Ar	5.512313143525294	5.288701825316855	12.171388141150958
Ar	5.814351102537256	1.187794377580442	12.933227127684425
Ar	2.6483412007626908	20.745642069203807	15.683791846570717
Ar	5.5768239710697145	19.22055673869848	11.159830632421738
Ar	11.375012753506075	8.520855701825171	5.457292825475277
Ar	11.039625917732964	16.493499987896147	4.042260108129892
Ar	12.479084039032148	16.116842431252884	9.136922408927136
Ar	20.407030243154665	18.701950289773333	18.865367654887862
Ar	8.8757611525079	17.311733305097384	20.316554602999112
Ar	16.873163706856182	1.324436081394144	1.4470148701884902
Ar	9.860918786650753	8.197239076611421	20.638874983315183
Ar	4.77295424392602	5.300584771742504	0.35512224487481464
Ar	9.873700119064006	5.571256829322737	18.367900204193916
Ar	20.975615642532187	15.543295520723026	6.34586099002196
Ar	5.035922993100813	1.9057722243188013	2.325913687074911
Ar	0.7705885498872771	14.674209560087363	18.027674036006765
Ar	6.971550096194574	6.78209597067442	19.799697339698906
Ar	0.07057733140592412	11.96264354874123	15.373519467454445
Ar	2.8281243794466677	3.3409891059240704	17.66477816387916
Ar	19.42294516596816	10.91882666308424	4.040618738381892
Ar	15.466160802104481	4.790040353061933	7.695308855792472
Ar	5.9891060644281335	15.769450671422476	14.027800493018926
Ar	6.824661316751934	19.48116837121294	14.209486663837783
Ar	5.724126159252334	21.090786016412107	16.876149758719677
Ar	11.209139721340733	15.326384613238144	0.7074874752994771
Ar	18.216705016000958	13.78522783073117	6.224741982596844
Ar	11.406100078107901	19.929056414351365	3.183887652494149
Ar	12.31204968844818	12.131018982790007	12.899411731063529
Ar	18.252593358994016	1.8473075596055146	14.004429325096151
Ar	0.4240644317109923	2.753149171489071	5.0584745245092115
Ar	17.03378656195312	17.12442862159527	11.62378208803218
Ar	14.490538322595897	20.951818142470184	3.3767943336085224
Ar	10.928117895024041	14.299224993474413	6.581690478086373
Ar	4.584358072572395	3.909254151785776	6.924754192230428
Ar	10.754363482993405	1.5502321882108268	12.291598370379615
Ar	3.3355966220521087	19.336116336922707	1.6015260860671565
Ar	9.345106872025022	17.14784606483609	8.484693630381974
Ar	2.830157722165571	13.563386698276995	5.659782316649335
Ar	2.8076993791833798	4.266719310112175	3.1755557863788955
Ar	18.804260428517363	1.9640593056370794	7.9388022229554105
Ar	1.4591876547708056	11.343694603851237	3.419155102002629
Ar	1.2664288239380745	1.1508089937116375	2.3179782395035287
Ar	11.02544863908273	13.2607309640784	3.4709536817220235
Ar	16.234123128083354	3.906273065005855	20.13428881743243
Ar	13.848232186759734	17.571930702621252	12.58632216084151
Ar	4.5594943163065595	5.9259760312231125	17.918293934853622
Ar	1.1799012387821157	6.299670636106782	18.241112567075227
Ar	16.617323450379637	7.8023551119366985	19.165942193081033
Ar	8.890798377327556	11.590589973097154	6.349736916987692
Ar	17.754088378207374	20.46622939059358	11.224546872738264
Ar	21.233216364376638	5.7310695531344935	12.084442872603253
Ar	18.52427394454322	10.681691965969849	14.013914623214319
Ar	13.504064068372926	8.076746593228826	12.322156954500468
Ar	3.431676115149718	8.520730961184123	19.673727728901913
Ar	12.650459430048732	1.6004751187888702	5.636817546883709
Ar	21.058225599675843	12.229979853073791	7.687755521497827
Ar	16.280492889766897	8.090545833463768	15.427739467746793
Ar	16.24336875638229	2.156717988012354	11.154589471122948
Ar	13.944104355445987	11.253696656831423	5.711672916866803
Ar	1.3235270474326295	2.20326583912379	8.122262152755853
Ar	2.7758270714539615	14.84589976894513	12.001450987212719
Ar	20.99236175168505	5.071975590559364	7.673633022018352
Ar	11.300832265368134	15.514333190260878	12.883871404965351
Ar	12.450154423649339	0.14678674027132052	14.933186396073518
Ar	8.184851921146326	17.924343370517175	5.049404287398067
Ar	19.593723973157502	18.81474808528517	3.9665300070717207
Ar	14.719773216065082	19.669090476832075	17.23076789333586
Ar	13.16780181033536	13.13451565492769	20.14693313377214
Ar	13.211738612378655	7.682071279656394	3.0964366172269564
Ar	16.44940211986777	14.922676337053499	20.76180251398412
Ar	14.15820060592901	20.750492100480127	11.939249804783929
Ar	9.843685559618486	12.717003463133388	15.67665245874698
Ar	21.065967396086563	19.91132289271967	0.4106114956317954
Ar	5.894867818640912	5.274955763716971	3.843596711011018
Ar	20.406929579819717	15.14150876106862	9.703026022916902
Ar	2.874658192136403	8.264812636044065	2.5573606918259686
Ar	19.082509100457713	5.509277892936802	21.04782270719743
Ar	14.31264105812297	14.497373214667347	11.938338892525394
Ar	19.416536222988583	18.028754854821916	7.619237058277257
Ar	5.377694350952572	16.66429988065219	3.9088550951360186
Ar	19.6953097963978	15.75243876837829	20.26929157582324
Ar	15.473596891406151	12.012687673636043	14.916061101922896
Ar	16.110115266009743	4.666796966064702	2.9776389235450513
Ar	18.28043238006809	7.008997350188481	7.875069425121341
Ar	3.922068950731924	14.34737885539883	19.488444501176776
Ar	12.748835695084656	4.598171368718548	4.3530049168956975
Ar	21.11004582504761	12.850637291149518	12.095428432576007
Ar	21.08714159357033	8.15422627746813	9.459117203511937
Ar	2.6134886024875366	3.6131080837338	11.31870265044524
Ar	8.129973029388015	4.236183553991098	5.992037037321892
Ar	16.640051881040563	1.99761648516505	5.183544426474179
Ar	18.10448345042793	17.932811897977896	0.8831182578198591
Ar	18.677824884330278	4.957550279078622	5.171311248484719
Ar	9.10715176465265	10.705486710697718	12.046918062293967
Ar	21.040881094336076	0.5066548977597685	16.757070993082436
Ar	11.972489273499088	5.483921571327121	0.7290368468263124
Ar	7.422354542378078	12.396493270788294	2.935874395916245
Ar	8.533126879170016	16.59179700173506	11.654259921662705
Ar	8.486058243390078	3.2963999061296594	9.492684190449884
Ar	20.43557149262233	20.591961025257266	9.266398359542857
Ar	1.0743638824667785	16.833155033373565	2.660809392837425
Ar	2.023321321410235	17.741872427460734	5.675942674281187
Ar	9.421856115075983	20.86067150883003	6.441036749386738
Ar	7.105704628288105	13.766282450775625	20.84588724927011
Ar	2.4077442143246808	10.072088074054642	6.898842362873211
Ar	15.082962995979774	18.76745187030132	9.521180337479352
Ar	16.049877296968255	19.62540247631277	14.137015400218045
Ar	18.511408721133915	4.449602819244565	10.204163913844964
Ar	20.29696408635338	18.046308315220777	12.100874932086413
Ar	11.630932451999247	20.275330156498967	9.196797089819889
Ar	15.640393105311706	7.252326443157962	0.7658234573378669
Ar	18.775461940580065	9.036283703691556	0.15379043862017602
Ar	14.716650253497338	0.6444775386360982	8.36836706272836
Ar	11.597276463200826	0.011868149493982462	18.176447569899622
Ar	10.382661072739635	9.72977815340349	2.50461359196057
Ar	8.59974044241472	7.472296455025274	12.681920408599378
Ar	0.6837140910838009	6.341049713879872	4.736351553046936
Ar	10.502900388699103	19.35422408970326	12.819936737249186
Ar	7.179388807819741	15.174682544352024	6.79369320407088
Ar	17.509649687517015	14.175302947118448	9.650783784082945
Ar	10.22678936289788	1.8392121997574462	21.0211685136253
Ar	8.657129955866052	19.59516891130012	17.508114326992157
Ar	17.58353203951416	17.335050303561783	18.306488593709705
Ar	6.6243391738171455	16.18442760003643	17.967253523723002
Ar	17.49851012278797	13.961765748115969	13.11517255956651
Ar	20.89669061496417	1.5336270593562893	20.119568637196984
Ar	4.06012044738958	12.997664218915492	16.520583986435575
Ar	13.035479889995676	9.716427605080186	0.460534969798989
Ar	11.4874151359362	18.073077966019486	16.718494665590242
Ar	0.38028707708455	10.458469030525155	0.16915636658275338
Ar	17.644359310549557	5.135436608755958	17.228769745571825
Ar	6.326962439748528	6.041853550820914	8.848297610225057
Ar	1.934914538831094	17.34472265421866	19.85376445694243
Ar	11.564868112624813	19.8098917629583	21.10106884959515
Ar	5.869896794479564	19.3245405707767	20.17948271372058
Ar	16.947536353463743	19.93451858094063	6.5712163439599625
Ar	17.106388162472886	16.57082630575267	3.824990414065082
Ar	20.988294517186144	2.3660856847454688	11.5231343982732
Ar	3.364388173104661	20.67247753012771	8.424827360904782
Ar	1.6850283210712258	11.490739287845868	18.330201741003524
Ar	9.062561233697233	0.6432413265266976	14.803600845120808
Ar	2.0998182307270805	3.5249423012088257	21.071529304349163
Ar	5.1918416888220165	9.17391771180996	8.672827397064726
Ar	6.595368948282924	19.232984917106197	7.938809195861986
Ar	8.723967845572423	1.3430703843203728	2.9060639786530453
Ar	20.507526975549343	8.83179357369918	17.98640980867159
Ar	15.86482505281043	11.383930474082613	20.308551604225485
Ar	13.17324073378799	7.546408473447061	19.116597166182302
Ar	7.3053973580476095	7.630638876301857	5.877167989547837
Ar	2.767976889870521	6.399219430089754	8.643949253199994
Ar	4.913323105335451	10.545068789442588	4.855859730820753
Ar	18.292949891688167	12.301319664600468	0.8331996044082755
Ar	17.66497888852786	7.18535445876831	12.074036495393425
Ar	9.944028656833758	12.374250709576943	0.2029622671877657
Ar	9.177416763907132	16.30055270210321	15.459272616851052
Ar	14.75425830706025	0.4798135391356297	19.744044843076935
Ar	9.396468550690003	7.931185711363364	8.67781343905717
Ar	10.761868345454918	10.761505013144191	18.57519600997856
Ar	5.292184159293752	9.84973360664907	17.45774586315369
Ar	8.554844037886998	8.527584438484897	17.09841092575238
Ar	7.288968247675133	12.42533061545245	17.995144867315112
Ar	13.023126430533418	7.08216667047098	8.874743980320714
Ar	21.04230964017418	18.43870963202868	15.549090684327803
Ar	0.06076512623112792	9.381894610423542	13.142049613070014
Ar	7.2505991310373625	8.062122488622373	2.318538670020791
Ar	10.013630236211492	12.94011646045195	9.599987414990723
Ar	5.858927031911856	6.991712774750659	15.126756634413866
Ar	20.04692896242806	14.581801298292822	2.7024850042437376
Ar	0.2616020798250339	20.806595660517033	5.860117737777803
Ar	21.07334719665163	15.435362047646317	14.044253638801111
Ar	13.570846988422005	2.168336295729105	1.0618691106639468
Ar	20.954491379847248	20.885188186853966	13.51062170315083
Ar	8.65989198322273	3.9629089905730552	13.167955783042682
Ar	2.9797050170594144	11.763363769901407	13.823948721111908
Ar	17.688985532621658	10.709836845362164	17.475759322363597
Ar	16.40073666942174	4.569598233257219	13.664724126536703
Ar	11.713629271315256	2.607783935644495	9.108842432736317
Ar	14.33289133776704	15.94541206964573	1.8614168104053
Ar	1.4509165242882693	18.24531774906741	9.872452019091822
Ar	18.64060581171741	7.748923568137081	3.278861948627118
Ar	6.253757064641791	15.01980796569447	9.862494283060677
Ar	10.062542648359576	14.319660160736822	19.104537490684457
Ar	13.955481992157763	14.870053323837002	5.070460998563638
Ar	1.0178342640886193	6.825783968680224	0.2913665802540312
Ar	15.045054764879119	18.572716243445498	0.00927888586037126
Ar	13.397255236312008	3.1554878540814375	13.022712011907531
Ar	20.023118434804296	12.596689002186006	19.326584221147442
Ar	5.334472012126863	11.693987409340963	11.470444164771958
Ar	16.676642646603714	13.554697786575236	3.2668108550845893
Ar	20.206331646474542	3.7533833650926876	2.1447572135873045
Ar	5.427343749372283	3.5791563834560107	15.490275452706447
Ar	14.87442954167298	16.406557434075456	15.65343531818554
Ar	5.366555094123047	2.092101885229316	9.949778253364215
Ar	15.884169495352108	11.267306802747282	11.68608100772566
Ar	14.958904526311562	2.2561718908957222	16.61287806050659
Ar	9.662618850470562	6.380900626024764	3.8798413379788883
Ar	8.041920014009309	15.536620679407354	2.1104183831885366
Ar	8.030278654877145	13.667419719406395	12.798383888845416
Ar	3.425407582894412	0.8124785967088073	4.974822408004348
Ar	14.227300484789899	5.541124877227142	16.43163048748398
Ar	4.134891650777351	17.040076501903645	8.35474006569337
Ar	6.723639612524352	10.976827938980643	14.566665718957587
Ar	3.818135944231068	8.432502672461187	11.667839128731037
Ar	10.92846411332383	5.466425792807706	7.272342524637156
Ar	14.93946098265244	5.243733356305867	10.871660010086508
Ar	2.1832931776952766	9.078819779338332	15.963825114770454
Ar	11.6631190927904	5.880521457678231	14.103047370334084
Ar	14.541031445090411	13.58837377194726	8.262134720030234
Ar	14.128334428823578	10.380555250888104	17.53123949899925
Ar	8.401485063696619	2.620860790761944	17.9453858645198
Ar	4.571486864248417	13.932588923666536	2.6603793817968997
Ar	7.934018418761733	4.674318829951652	1.2157172668480474
Ar	17.028559149312414	10.678835416288752	7.245923897865276
Ar	19.129649989447987	10.751310765370045	10.160707793010745
Ar	12.602008309966855	14.204582022740494	16.620599038802936
Ar	3.8051602163358775	7.046309516154345	5.69621149685852
Ar	15.250570920592782	7.836823825445386	5.890341768530574
Ar	3.0487724283569717	16.91817309261038	15.939548215466685
Ar	18.179999023376215	1.7936826942559057	18.387761353457222
Ar	1.4146612326401167	2.6976723493922767	14.220633565551896
Ar	12.637230740728896	3.7162774589761263	19.066397431771744
Ar	1.122714492450473	13.806957187527743	0.23666085154099056
Ar	16.03416581186749	13.401357250642508	17.715735555001036
Ar	11.007957288323155	5.5321720545668125	10.7460826638381
Ar	11.932430358496939	10.188297033139955	8.762683905467552
Ar	8.165147948591596	19.703921779685736	1.3128966079791182
Ar	11.62315423859352	9.268703631136711	15.327733097339914
Ar	18.05152947373391	20.265955183139056	16.36119365713869
Ar	13.072609735726191	16.40163373548667	19.17177165761705
Ar	5.547494933620558	1.779868348357158	20.195210460488624
Ar	13.54955843283155	18.487216094743346	6.451483356757994
Ar	1.9939981341443942	11.07400028917325	10.620074484041423
Ar	11.765201868069393	3.195701837269464	15.90530844816971
Ar	20.424813558945974	9.105173205712928	6.505620859994485
Ar	5.715279828899861	19.85160543612649	4.232228338939845
Ar	2.454424475358875	21.13116439593478	20.02846595288625
Ar	5.063903106541513	16.525061521359326	0.5610719810255693
Ar	13.745654275834267	12.47302144808382	2.259139737594554
Ar	19.293406871259876	6.888804857185892	15.019100362281185
256
Time Step: 15