72
Time Step: 5
B	-4.291915404110785e-08	-1.3756093590901471e-06	-5.492490083737044e-06
N	-7.465715276702948e-05	2.8986622263052055	-9.02877546530842e-06
B	-3.389682552636309e-05	4.347984724746554	-6.09910945914617e-05
N	6.583722373244183e-06	7.246622833598835	-9.929170923437556e-06
B	6.766920656637154e-06	8.695984719583093	-2.6298743407455245e-05
N	-8.871867018971002e-06	11.594646424740208	-2.8124394284808315e-05
N	1.2550203841856487	0.7246717866922378	5.7392922992739164e-06
B	1.2550378547233918	2.1739986197410994	3.220231172012494e-06
N	1.2550273890376784	5.072686499151795	3.71132150818336e-06
B	1.2549900884541234	6.522017830287128	-9.103821620791496e-06
N	1.2550042446011973	9.42065647613947	2.3935778076231947e-05
B	1.2550367254871773	10.869948102499402	-7.429753036446187e-06
B	2.509989199247711	5.2964093770916436e-05	-4.947490026037206e-05
N	2.5099940543889123	2.898697623559855	3.531235340847907e-05
B	2.510006851768966	4.347945657470104	-4.373634033033891e-05
N	2.5099745951450516	7.246679796870663	1.2616940804351466e-05
B	2.5099812643590664	8.69602598633683	-1.948097177861565e-05
N	2.5099935594170666	11.594672389298555	1.1309061975144402e-05
N	3.7650050276330433	0.7246394619678841	2.5877196524658238e-05
B	3.764966842425821	2.1739554495945694	-1.6773407166198578e-06
N	3.76500670952681	5.072629057175874	-1.3521706184674507e-05
B	3.764997595477193	6.521981071998037	3.9207853252240705e-05
N	3.7649987222887678	9.420671552383105	2.699783926746203e-05
B	3.765011856472343	10.870003217259729	2.0750123609507988e-05
B	5.019989657006252	3.1512679933478124e-05	1.3045565607053714e-05
N	5.020016107723443	2.898661123597985	-2.6238520465652027e-05
B	5.019976376085824	4.348022380767356	1.4034810202097262e-05
N	5.020032475879761	7.246625613293629	1.415378673660237e-05
B	5.019962190974283	8.695984314445328	-1.6321688406848333e-05
N	5.020015940628726	11.594627729902276	-5.106125737178275e-06
N	6.275015419988674	0.7246675211638743	-9.579380127588068e-06
B	6.274977698558199	2.173994253911042	-2.2158184698506103e-05
N	6.274989054258569	5.07269316530255	-5.0144131565899784e-06
B	6.275002018618511	6.522014049327903	-2.0506713354002716e-05
N	6.274982967752225	9.420630872705917	7.160778028733483e-06
B	6.275000559261861	10.869977171818888	2.0569136168705894e-05
B	7.530006907757313	6.167949741674761e-06	-3.738326582668931e-05
N	7.530009526067468	2.8986837555203806	8.052604884763788e-06
B	7.530000221036108	4.347990551008042	3.8976016506861634e-05
N	7.529986142543218	7.246665761029274	-1.462494930931978e-06
B	7.52997038173479	8.696022986396848	-2.7515268929483212e-05
N	7.529982149239133	11.594701125256805	2.0322898362545103e-05
N	8.785010579221764	0.7246378570013108	-1.6081769134379877e-06
B	8.785042266859552	2.17401503877264	9.325562429449442e-06
N	8.784965501021944	5.0726438168991805	3.143772844553805e-05
B	8.7849616804315	6.522001949814308	-4.1960729649906126e-05
N	8.785028280695098	9.42065934353416	1.3858499744565578e-05
B	8.785037020038855	10.869940074113472	-1.7337784535490446e-05
B	10.039998467433485	3.927049520133706e-05	1.8285619459073303e-05
N	10.040002065978838	2.898642214848006	-1.131506144577027e-05
B	10.03993770228625	4.348011131125416	-2.9719197746514396e-05
N	10.040005813908685	7.246647085242161	-2.823774872549036e-05
B	10.039982840345495	8.695991056679569	-8.968663206539402e-06
N	10.039996598767942	11.594705777323213	-2.6570650418141344e-05
N	11.29504258412824	0.7246935070193619	-1.7769952534919053e-05
B	11.29496082000813	2.173995581784005	6.960614658593853e-08
N	11.294997477351274	5.072674937369976	2.47882220542573e-05
B	11.294995197139471	6.522020041241799	2.1631083659802837e-05
N	11.294991682818337	9.420686944078117	3.950442630969977e-06
B	11.295019183031455	10.870004688021877	1.384103839978007e-05
B	12.550013330984003	-9.449238441217367e-06	2.3562791230764497e-05
N	12.550020178375968	2.8986788559058767	2.992691363030859e-05
B	12.55001816006729	4.347988236053634	2.3325031597252058e-05
N	12.54996332113375	7.246656321607045	-7.503199642347827e-06
B	12.550016866940796	8.695998397932287	1.201966551286941e-05
N	12.549960113034947	11.59469768519082	8.81125757055492e-06
N	13.80499934504344	0.7246085391276391	9.027876104274113e-06
B	13.805035923067146	2.1739762630765656	-2.824784475333396e-05
N	13.805029159517911	5.072682941201791	3.699577904044601e-05
B	13.804987962037757	6.522013459167223	3.5796871731929596e-05
N	13.805009409959606	9.420709825735507	-5.91925855300005e-06
B	13.805013940697023	10.870033479496518	1.908406318304597e-05
72
Time Step: 10
B	-2.093619496357565e-05	-1.488761639756644e-05	-1.0985236699439114e-05
N	-0.00015848238017076617	2.8986630890923504	-1.8057070414792866e-05
B	-8.862000466654538e-05	4.347957392527557	-0.0001219880002283567
N	3.9726893992461675e-06	7.2465843325982915	-1.985864144099975e-05
B	-7.393565370897344e-06	8.695957331881651	-5.260024157204739e-05
N	-2.693035714916487e-05	11.594631505271865	-5.624981874097578e-05
N	1.2550315682324436	0.7246822334301108	1.1479657742239363e-05
B	1.2550965624653831	2.1739851614901404	6.440175466085689e-06
N	1.255045587921959	5.072711649168533	7.4242005958670015e-06
B	1.2549593321062356	6.5220235497048105	-1.8208747300606463e-05
N	1.2550176773269903	9.42065160611342	4.787313665688184e-05
B	1.2550943245895656	10.869884126454163	-1.4859809725086433e-05
B	2.5099575493774795	9.380202868714953e-05	-9.895527580639989e-05
N	2.5099789345730383	2.8987339084196573	7.0626414698507e-05
B	2.5100345986609036	4.347879240800523	-8.747692696623558e-05
N	2.509958376281634	7.246698251839521	2.5234304520073463e-05
B	2.509941655453148	8.696039864063728	-3.896540738941411e-05
N	2.5099962994794436	11.59468344257944	2.2618939596671958e-05
N	3.7650192433456664	0.7246175826839492	5.1756067526414206e-05
B	3.7649128580027407	2.173898818341803	-3.355152720524739e-06
N	3.7650042040486054	5.072596779168392	-2.7044099601876857e-05
B	3.7649742726154907	6.521950047287195	7.841842625689768e-05
N	3.7650066110269726	9.420681762114851	5.3996950477367076e-05
B	3.765002856395039	10.869994332585241	4.1501320822601776e-05
B	5.019958441724085	5.090067458861854e-05	2.6092124724845022e-05
N	5.020041379669857	2.898660916363978	-5.2477889063234876e-05
B	5.019931890315229	4.348032647454178	2.8071853179590652e-05
N	5.020055769666639	7.246589890727626	2.8308216056136117e-05
B	5.019903507537524	8.695956518555905	-3.2645912424907876e-05
N	5.020041054400588	11.594594127991503	-1.0213116558960719e-05
N	6.275021657930944	0.7246736987939274	-1.9158385169922305e-05
B	6.27497631878233	2.1739764350993744	-4.431715611597932e-05
N	6.274968932637509	5.072724982459904	-1.002960942762935e-05
B	6.274983174475237	6.522015987872913	-4.101527148736399e-05
N	6.274956754380956	9.420600407090124	1.4322244061888381e-05
B	6.2750220308516385	10.869942264296865	4.113956876915728e-05
B	7.529992926894295	2.3831833897336086e-07	-7.476980284904972e-05
N	7.530009874426835	2.8987061721256135	1.6105181925093665e-05
B	7.529979551904789	4.3479690330294245	7.795397923532025e-05
N	7.529963096208125	7.246670185629291	-2.9238641674811742e-06
B	7.529919871452116	8.696033869969668	-5.503347690232724e-05
N	7.52995512836277	11.5947408937645	4.064699410612662e-05
N	8.78503034286473	0.7246143798242893	-3.2160437413035588e-06
B	8.785105374717698	2.1740179323029074	1.8651870946959255e-05
N	8.784940183562982	5.072626313895321	6.287663334074058e-05
B	8.784944261368022	6.521991789321864	-8.392494765691962e-05
N	8.785065737792356	9.420657335212193	2.7718227319487677e-05
B	8.785094869607963	10.869868083699515	-3.4677509339456286e-05
B	10.039976092720876	6.644244131173958e-05	3.657406146114438e-05
N	10.039994950299343	2.8986230997886424	-2.26303396237412e-05
B	10.03985453619473	4.348010157960884	-5.944225948281929e-05
N	10.040002432038179	7.246632829692606	-5.6476401089840403e-05
B	10.039944778638395	8.69597000697996	-1.7937905967317786e-05
N	10.040002385328595	11.594750209611457	-5.3142284936082684e-05
N	11.295075977569697	0.7247256658895825	-3.554113134346102e-05
B	11.294900807887052	2.1739791104736566	1.3870147592051167e-07
N	11.294985775450119	5.07268853991872	4.95770281940755e-05
B	11.294969515991385	6.522027932258238	4.326432708438953e-05
N	11.294974182031474	9.420712538054298	7.90077770035087e-06
B	11.295017475174808	10.86999727221941	2.7683380393135e-05
B	12.5500475183807	-3.099648799068786e-05	4.7127828618318205e-05
N	12.550031163429514	2.898696344838845	5.985517069386573e-05
B	12.55005721225984	4.347964387091122	4.664956268935376e-05
N	12.549935830258834	7.246651304648801	-1.5007504410495882e-05
B	12.5500546055426	8.695984701190973	2.4040468389619208e-05
N	12.549929414687423	11.594734023772721	1.7622187802383357e-05
N	13.805007881123226	0.7245557446169915	1.8056006594713583e-05
B	13.805092678653311	2.1739404078214264	-5.649918547856726e-05
N	13.80506749036126	5.072704553347917	7.39927537605098e-05
B	13.8049967830635	6.5220147886027595	7.159640349333623e-05
N	13.805028007029888	9.420758305009425	-1.1838867162862991e-05
B	13.805048717436016	10.87005486587055	3.817011683432793e-05
72
Time Step: 15
B	-6.265100263793723e-05	-4.053269302915521e-05	-1.6478496360999622e-05
N	-0.00025144060764094035	2.8986692435591106	-2.7084403095872504e-05
B	-0.00016411676901708055	4.347918023859389	-0.00018299652731498366
N	-7.838720967394414e-06	7.2465511715156445	-2.9788711428021894e-05
B	-4.2469561880176036e-05	8.695917842192562	-7.890724803863234e-05
N	-5.4151119883447527e-05	11.594621902541244	-8.437730353999613e-05
N	1.2550335372284467	0.7246980071205656	1.7222170417893947e-05
B	1.2551760596841313	2.173959659779297	9.659544217966043e-06
N	1.2550545983170744	5.072742103808223	1.114019322008351e-05
B	1.2549077500652472	6.522017162232785	-2.73158809774321e-05
N	1.2550402849525415	9.420652048902847	7.18136565474174e-05
B	1.255172757481194	10.869808108147039	-2.2290475932047877e-05
B	2.5099050648543746	0.00012250250747612474	-0.00014844660229780223
N	2.5099546473257366	2.8987755114595846	0.00010594389338559722
B	2.5100832148127363	4.347800788447277	-0.0001312260081272965
N	2.5099513422334816	7.24672202816084	3.78525140580724e-05
B	2.5098812030400817	8.696041637124367	-5.8456770710107155e-05
N	2.5100082217381736	11.594699832935527	3.3930448353916557e-05
N	3.765042640221475	0.7246010260535399	7.763828765087762e-05
B	3.7648380833564343	2.173830140210449	-5.033909307025192e-06
N	3.764992473346318	5.0725698399154115	-4.056786796517306e-05
B	3.764930041862088	6.521906937788148	0.00011763443812531486
N	3.765023655161168	9.420697291695253	8.099860540387455e-05
B	3.7649730059555115	10.86997335661104	6.225466488935118e-05
B	5.019906378667901	5.814792931293295e-05	3.914066979969829e-05
N	5.020075796447766	2.898666036844458	-7.871895315968956e-05
B	5.019866569710332	4.348030796870393	4.211336200339071e-05
N	5.020069867397021	7.246559503308812	4.246393132319536e-05
B	5.019823968092547	8.695916610616111	-4.8975208099417856e-05
N	5.0200753386247365	11.594565865329578	-1.5321837293666757e-05
N	6.275018709200417	0.7246851962196861	-2.873663970897989e-05
B	6.274995871917693	2.173946548356785	-6.647770087792228e-05
N	6.274939637033147	5.072762110185153	-1.5046371447894303e-05
B	6.274943480528106	6.522005815724232	-6.152752032269523e-05
N	6.274921348386532	9.420575271691524	2.1485086497379082e-05
B	6.275064416661945	10.86989527563143	6.171259436929351e-05
B	7.529958068625907	-1.777161417198378e-05	-0.00011216288317655693
N	7.530001054924278	2.8987339025427956	2.4157702930746836e-05
B	7.529937984342675	4.347935460835374	0.00011693583463906888
N	7.529930863928836	7.246679940265542	-4.382982092519402e-06
B	7.5298485085156965	8.69603266270546	-8.255756170708853e-05
N	7.529918962572906	11.594785953938725	6.0973483660045154e-05
N	8.78505927998084	0.7245962394441988	-4.823290811206913e-06
B	8.785189279125984	2.1740086790181183	2.7979672139129155e-05
N	8.784924041573372	5.072614162705316	9.431789179833541e-05
B	8.784947739872377	6.521969520811516	-0.00012589614206259898
N	8.785112352330136	9.420660628328633	4.158041036254054e-05
B	8.785173496421	10.869784079046099	-5.202111235832832e-05
B	10.039932912554548	8.152588250332895e-05	5.48681483685966e-05
N	10.039978652638563	2.898609334035922	-3.3946051712885144e-05
B	10.039750544154467	4.347997084823766	-8.917304821729135e-05
N	10.039989847766961	7.2466239016872205	-8.471686127277476e-05
B	10.039885845947815	8.695936853133693	-2.690830795240779e-05
N	10.04001735871097	11.594799960940176	-7.971588769148247e-05
N	11.295100181465394	0.7247631313678415	-5.331476222862398e-05
B	11.294820007156773	2.173950612734104	2.0677733667175745e-07
N	11.294964899063643	5.0727074621936366	7.436700185250666e-05
B	11.294922960205628	6.522023668789671	6.490189092595564e-05
N	11.294947505846013	9.420743434708525	1.1850897634719494e-05
B	11.294994871033499	10.869977761353725	4.1528329578550824e-05
B	12.550102541120687	-6.462489746801287e-05	7.069735820709627e-05
N	12.550032959250013	2.898719116252167	8.978611312814239e-05
B	12.550117135627628	4.347928482923984	6.997309272309528e-05
N	12.549917531351994	7.246651613457517	-2.2514019381971405e-05
B	12.550113191991633	8.695958929916458	3.606354570735447e-05
N	12.54990791142046	11.594775672014988	2.643246324865311e-05
N	13.805025610127045	0.7245082919553385	2.7084645722160407e-05
B	13.805170213845555	2.173892428476149	-8.475751625325487e-05
N	13.805114982521662	5.072731502974177	0.00011099212082440481
B	13.80502644281145	6.522003998289657	0.00010740125520721376
N	13.805055789168271	9.420812100470313	-1.7759175985480885e-05
B	13.805104287037684	10.870064174596079	5.7260152673666885e-05