72
Time Step: 5
B	-0.0011528209228419731	-8.443094326113587e-05	0.0002531341894350845
N	-0.0002605228173999844	2.8989328948969164	0.00023325019767327828
B	-0.00144236821381217	4.3474473163726	3.355744026262091e-06
N	-0.0004014382151707463	7.246939372403817	3.6268459530523563e-05
B	-0.0013095754297779347	8.69518469909362	0.000237001027145239
N	-0.0003223324045219673	11.59491727911545	-0.00020605567484132618
N	1.2543817311850933	0.7250933682116968	-0.00031857044055003965
B	1.2561541627436823	2.173432876687706	0.00021243732207977035
N	1.254509752946004	5.072991175463537	-0.00021644566494602858
B	1.2535942747458007	6.521191657936186	0.0003615603010176717
N	1.2556633981485934	9.420638057485343	7.64319233417549e-05
B	1.2560769894547734	10.868983140407838	0.0003127221826121641
B	2.50896262877724	-0.000894637290195657	4.0109906565137885e-05
N	2.509798326064523	2.8989200763580816	-0.00015297983764208872
B	2.5107469231002963	4.347566407918441	-0.00013013696922926956
N	2.510779345592294	7.246869197728726	0.0001249022433918746
B	2.5089703161507395	8.695316941416639	0.0002722447570215221
N	2.510368875387337	11.594748551869381	0.00034430410232599384
N	3.7655926501732027	0.725160155294082	-0.00014464435785008933
B	3.7642029596838067	2.173446493691271	0.00013946336984331506
N	3.7646712597349055	5.07285235159721	0.000136552349107786
B	3.7640618941868578	6.5217613485583525	-0.0002840187188302257
N	3.765481519389038	9.420788767804058	-0.0001223992180553578
B	3.7640875125765634	10.869174042769929	-7.382368144342335e-05
B	5.018997167180849	-0.000555515640679981	-7.274272582054309e-05
N	5.020411091305994	2.8988757047945053	-4.418465295294854e-05
B	5.018980207717945	4.3469782119611535	0.0001832765818198493
N	5.019471346447959	7.2470587638197115	0.00021450656313119136
B	5.018991985012818	8.69556765599908	-0.00012340908107576963
N	5.020735859619262	11.595006167104984	-0.0003117819497863261
N	6.274291773646517	0.7249035506115952	0.00010122240315017602
B	6.276399772810831	2.1733189360432488	-7.616543052817827e-05
N	6.274237239223467	5.073249558585518	5.539260644569382e-05
B	6.273804009179051	6.521130474253847	-0.0005896044189284464
N	6.274196905734825	9.420899996429851	-4.938684409088813e-05
B	6.276080291075175	10.869161799318995	0.0002587678502429179
B	7.528772478981653	-0.0006167434449533852	0.0003385477202263387
N	7.529175914642891	2.89917006350136	-3.091264275518502e-05
B	7.528863285696707	4.3471552514474485	-7.088037610735938e-05
N	7.529725360011992	7.246780398349068	-0.000546226080465487
B	7.529086949436416	8.69569083940086	-3.721098946141183e-05
N	7.529566790374908	11.594873975854345	6.773129475710957e-05
N	8.785623187363132	0.7248082659796867	0.00028620999949375723
B	8.786422129780588	2.173216682928044	0.00017184389631702538
N	8.785386144546084	5.073179613928346	0.00011459457278840133
B	8.786180433227507	6.5215254762117	-0.0007471728405776493
N	8.785584237362718	9.420669874134692	1.845588386944674e-05
B	8.786287994001277	10.869464504026382	-0.00020959445818541866
B	10.038429989741857	-0.0005223493660257636	-0.0007020813323405681
N	10.039856794755204	2.8989010653039067	4.549380118777223e-05
B	10.039077063913904	4.34765867157052	0.0003351290705485468
N	10.039310079432964	7.246932819828515	7.959972959918285e-05
B	10.039258930659713	8.695459446105087	-8.039422927458676e-06
N	10.040033444372847	11.595002413960104	7.614758371478518e-05
N	11.294659517561755	0.7249577536807169	7.274841876249843e-05
B	11.293729692186101	2.173486752760967	-0.0005102336532211917
N	11.294372041952071	5.072833763704334	0.0001223899155465524
B	11.29401687235014	6.521681412083002	-0.0001927663959256744
N	11.294480614684112	9.420802548441275	0.00028820172738422726
B	11.294158215807508	10.869239005336384	0.00033923909622334805
B	12.551133808735194	-0.0006864178147101475	-0.0002225216164725394
N	12.54928611169917	2.899131958860606	-0.0001323307416808795
B	12.550939553037908	4.347570001786724	0.00013414188002758103
N	12.550334932453582	7.246891641568536	-0.00018060057010461242
B	12.551032326903789	8.695950960832036	-2.947972201603729e-05
N	12.550298210323104	11.594696477102179	0.0001936082382164715
N	13.805496873200441	0.7255604224753153	-7.556542862756661e-05
B	13.806257599851909	2.173584960920164	0.0002249268985481771
N	13.805753533444674	5.07291794293874	0.0001256964342527162
B	13.806091885321795	6.520908640350591	9.463408595189771e-05
N	13.80567078520257	9.420697484700874	-9.005586476502725e-05
B	13.805666520814773	10.86934208084288	-2.42767726762843e-05
72
Time Step: 10
B	-0.004331771908907449	-0.0013671011170041708	0.0005102124934297778
N	-0.0013918336388056458	2.8997056035779	0.00046676924575959634
B	-0.004874183756111324	4.345721259530251	6.759477006706627e-06
N	-0.0017185795998512195	7.247741571847306	7.17263356649394e-05
B	-0.004579125999203069	8.693229629426554	0.00047578966471616645
N	-0.0015186751880683265	11.59567649963429	-0.00041359839254591563
N	1.2528400892578133	0.7260319462960726	-0.0006388210009357563
B	1.2593000285294926	2.1717192494385165	0.00042679858204549626
N	1.2531189403118186	5.073804786076473	-0.00043381429539669867
B	1.2502214788789647	6.519268125432557	0.0007260240472673285
N	1.2571880756823424	9.421110884675665	0.00015217308312656493
B	1.2591533510830124	10.866835602753898	0.0006278617315703044
B	2.5059301593783974	-0.002908809999030156	8.102377624997875e-05
N	2.5086852601370357	2.899706918776429	-0.00030683959488954045
B	2.513495303630281	4.345975421814704	-0.00026049133045318056
N	2.5124139959469476	7.247572119112504	0.00024967310807095063
B	2.5059623008783602	8.693480635439006	0.0005467500787181782
N	2.5116494227813657	11.595358127681331	0.0006893714825421212
N	3.7670506261654495	0.7261537180462039	-0.0002899447229230037
B	3.7613922049778212	2.171754742845554	0.0002809050337676431
N	3.763431790595623	5.073571527740479	0.00027369725851725897
B	3.7611000173375904	6.520324551523283	-0.000571800814043732
N	3.7668323846519534	9.421416425987893	-0.0002455014756978424
B	3.7612027551173086	10.867210191086238	-0.00014757573001707505
B	5.015959642784239	-0.002291798093644187	-0.0001454592541184361
N	5.021725418959981	2.899573951779209	-8.886918737163879e-05
B	5.01592010579755	4.344807313560283	0.00036765639740757815
N	5.018019391417044	7.247968108418774	0.00043119250744417343
B	5.01595111004248	8.693948005106744	-0.0002478585254167786
N	5.022359365892277	11.59583474345397	-0.0006247401047678523
N	6.2726547550128595	0.7256570311827235	0.00020238216084383703
B	6.2797975850393035	2.1714701239074463	-0.0001529513696697286
N	6.272552342851105	5.074336537932285	0.00011151413554163583
B	6.270580024835861	6.519128400178823	-0.0011825989502012933
N	6.27247093420558	9.421645902021611	-9.902612806006068e-05
B	6.2791878105698675	10.867157085515315	0.0005208342866019527
B	7.525549840847066	-0.0023622766188076518	0.0006784231611229867
N	7.527502883855541	2.9001687453573757	-6.207526210795008e-05
B	7.5257256017833205	4.345203300144404	-0.00014282668641794034
N	7.528551222451915	7.247390676793566	-0.0010925744320734454
B	7.526148870919606	8.694232808019864	-7.347492588659554e-05
N	7.528264939088446	11.595585479040517	0.00013546988755548908
N	8.787104227127285	0.7254564026867628	0.000573424666876389
B	8.789788700642205	2.171303138655833	0.0003444753322790692
N	8.786637865333935	5.074194693978222	0.00023012711813950203
B	8.78934078289214	6.519895481470442	-0.0014988909636066425
N	8.787043777999504	9.421185020201062	3.725364289071501e-05
B	8.789558852763134	10.867779143491257	-0.0004213786578304519
B	10.034879540574288	-0.002214931065074646	-0.0014110713546295582
N	10.038795725930163	2.8996754345896965	9.1533223503377e-05
B	10.036110691255198	4.346127636752864	0.0006722145696138489
N	10.037717150426413	7.2477305868534945	0.00016056505634116474
B	10.036479551609778	8.69373378687299	-1.7469918664739608e-05
N	10.040995745323487	11.595871071076884	0.00015329220187255166
N	11.293422297592953	0.7257373294739485	0.00014729641154265872
B	11.290433638726734	2.1718077267141185	-0.001024447881795479
N	11.292855415879854	5.07350152910399	0.0002448637818226665
B	11.291016528206967	6.520208602054732	-0.00038688046802290736
N	11.293067060197	9.421434406261248	0.0005771685811332747
B	11.291306904595105	10.86733006160034	0.0006797316482389853
B	12.554276080533693	-0.0025087502759051044	-0.0004474097225381004
N	12.547683922285422	2.9000822235357173	-0.00026515279150073724
B	12.553896068819503	4.346008749672347	0.00026894213642083653
N	12.551571510817785	7.24761673261687	-0.0003615912051704028
B	12.554075680698073	8.694742906347312	-5.969531261765385e-05
N	12.551490945590638	11.595225345356337	0.0003875909154385634
N	13.806894797157842	0.7269768280399067	-0.0001515006961470326
B	13.809474956818637	2.172042748801441	0.0004518541522452165
N	13.80740363034334	5.073695658824621	0.00025153044557799147
B	13.809190697648335	6.518665365982503	0.00019037561066507748
N	13.8072505548058	9.421264679594321	-0.00018060267280359675
B	13.808372317575252	10.867505766288208	-4.883914449419055e-05
72
Time Step: 15
B	-0.00937141704823865	-0.0037779870928505775	0.0007751958569002984
N	-0.00327479987770353	2.9009211548667393	0.000700830100833592
B	-0.01009588543200348	4.3429088901627075	1.0173058015376495e-05
N	-0.003931307306787003	7.249066108390894	0.00010553492652287064
B	-0.00952396160815014	8.690291478741898	0.0007181794526796515
N	-0.003472419337274003	11.596881645475008	-0.00062407129110947
N	1.2503496066779118	0.7274364538440095	-0.000962443203621745
B	1.2641873372898937	2.169010373700856	0.0006451348903184058
N	1.2508843617947218	5.075004399654407	-0.0006530399326536257
B	1.2451143735386891	6.516431160594036	0.001096303963519192
N	1.259447064739248	9.422016699686141	0.00022652689574268758
B	1.2640188472610416	10.863746806074554	0.0009477007283999361
B	2.5011064026298384	-0.005842635790895736	0.00012345022129565847
N	2.5066800657935824	2.901022992455128	-0.000462487680519041
B	2.518002060885148	4.343369432623704	-0.00039133177785894265
N	2.5147766473576785	7.2487064311542	0.00037423366391407884
B	2.5012371001077045	8.690635236306065	0.0008257005721460131
N	2.5138228899837283	11.596487029809206	0.0010359970875214695
N	3.769254769663822	0.7275773749058971	-0.0004365502881624377
B	3.7567581135994184	2.169108123693911	0.00042629804587051163
N	3.7613072553617997	5.074821094003392	0.0004120607210488701
B	3.7562869422147873	6.517757966332778	-0.0008671515107266373
N	3.7689382005024337	9.422484797678745	-0.00036995638062568457
B	3.756607920840295	10.86426705927682	-0.00022130419789906787
B	5.011041917017251	-0.005124867447065005	-0.00021805327177518301
N	5.023893350817183	2.900656514882467	-0.0001345457255544657
B	5.010931967960434	4.341624787533189	0.0005542513586710654
N	5.0156204358963885	7.249353699319734	0.0006522513384442336
B	5.011037851407401	8.691220074789443	-0.00037442462488207137
N	5.024808562906272	11.597049234612408	-0.0009400032258046222
N	6.270057492576682	0.7268854857245787	0.0003034148765472355
B	6.285004007794772	2.168546746184344	-0.00023099968063509848
N	6.269924141565451	5.075873869126316	0.00016914373950859245
B	6.265454389027489	6.516148328993531	-0.0017824866909015888
N	6.269795180201225	9.42285891872048	-0.00014919444073301373
B	6.284159476098451	10.864081894182796	0.0007894758839005984
B	7.520543704460386	-0.005046266579503599	0.001020971970188923
N	7.525117450491285	2.901587829661849	-9.369805734009625e-05
B	7.520791301864667	4.342352851157548	-0.00021685353969857308
N	7.526534869583022	7.248401893899385	-0.0016392112783688803
B	7.521375494029709	8.691797939571492	-0.00010777296387690933
N	7.526214755314446	11.596735152627776	0.00020315638912692113
N	8.789312583007213	0.7265474006714937	0.0008627300979846327
B	8.794808852130707	2.168425997515444	0.0005186061100529183
N	8.78863307500502	5.075642106414072	0.00034754668831600875
B	8.794215410699323	6.517252952075109	-0.0022598749892360263
N	8.789263403922053	9.422152828238948	5.674107314097796e-05
B	8.794590204994288	10.865114299617597	-0.0006374932080887781
B	10.02955188674588	-0.00498381288644017	-0.002133992668881371
N	10.03683324975464	2.900992722944464	0.00013866322874687422
B	10.031253840543613	4.343485046966045	0.0010132407683630525
N	10.035253328318904	7.249054849614083	0.00024432552849076123
B	10.031821848090976	8.690905285196427	-2.9662124724794564e-05
N	10.042883397972055	11.597268575585629	0.00023247865961837632
N	11.291348551432502	0.7269016438719745	0.00022540058795520146
B	11.285241457953088	2.169081448717062	-0.00154666165403204
N	11.290516540217764	5.074576379186387	0.00036752828422294324
B	11.28619229464757	6.517752251438396	-0.000583728618107885
N	11.29082180177136	9.422465000598837	0.0008676069654223403
B	11.286681895533246	10.864424078516485	0.0010227150374049656
B	12.559227603095968	-0.005282667009505525	-0.0006769927203967052
N	12.545256438266422	2.9014127363893967	-0.00039893197551496356
B	12.558678035320328	4.343504555825918	0.00040508950060149095
N	12.553654397436159	7.248749332086331	-0.0005433537816801033
B	12.558929945760612	8.692538171833467	-9.12682542007962e-05
N	12.553517063892201	11.596159350223049	0.0005823545382828531
N	13.809159733851585	0.7289024669419986	-0.00022821281854363887
B	13.814373037266867	2.1695432993303685	0.000682704118715486
N	13.809912767675817	5.074988610354927	0.00037764694122538006
B	13.814114137754222	6.515386350053345	0.0002882855062747786
N	13.809712975065331	9.422367836533903	-0.0002721554592610731
B	13.812964457137227	10.864579984453728	-7.390889679217866e-05
72
Time Step: 20
B	-0.016007945419512493	-0.007196046398608807	0.001052101134357839
N	-0.005729600985587023	2.9024813788781043	0.0009357151918036047
B	-0.016812975644116747	4.33914662435802	1.34021290919547e-05
N	-0.007000131060020042	7.250900312237922	0.00013680309078411936
B	-0.015730673398496063	8.686600198773277	0.0009660477355450547
N	-0.006005862428436801	11.598435993786959	-0.0008388576115197733
N	1.2468667767391586	0.7292351790591981	-0.0012911543504637226
B	1.2704357197406504	2.165531331258101	0.0008697448478874218
N	1.247894712373936	5.076434054678752	-0.000875079335476189
B	1.2385939548585743	6.512974660527176	0.0014753465553806078
N	1.2622552646295804	9.423256234380263	0.00029877931293262653
B	1.2703677186676086	10.860004170650992	0.001274299480195814
B	2.494783467443522	-0.009398203812812108	0.00016793458849559178
N	2.503815862618234	2.9028592572597316	-0.0006208887645225366
B	2.5238900271561904	4.339969580785025	-0.0005230249339059437
N	2.517686059082622	7.250172851459604	0.0004985930846482026
B	2.4951835754693636	8.686998831335533	0.0011111616141248452
N	2.5168566544254274	11.598122797940059	0.0013850384901062883
N	3.772030119526231	0.7293302613383007	-0.000585104373613684
B	3.750588918237705	2.165790720758395	0.0005776100748710612
N	3.7583400859323373	5.07659219629406	0.0005523404376116004
B	3.7498926714386527	6.514185355059079	-0.001173971823192134
N	3.7716273594015015	9.423897445012011	-0.0004963222052470848
B	3.750692934431096	10.860575299363322	-0.0002952718907940865
B	5.004491556695281	-0.008921067725769966	-0.00029029333243634723
N	5.026837148797107	2.9019641080020353	-0.00018169306471321054
B	5.0041832363833745	4.337640267904147	0.0007441917733002211
N	5.0122359433956944	7.251147567926102	0.0008799091003214281
B	5.004511484005559	8.687517107753145	-0.0005042584961999064
N	5.027997735629971	11.59849263690547	-0.0012586207313987732
N	6.266450939487431	0.7285201322572693	0.000404254356480921
B	6.291741499823948	2.164692635393183	-0.000310995788433038
N	6.266317610069516	5.077781610136346	0.00022915422339607466
B	6.258612436912643	6.51242056646166	-0.002392984369921871
N	6.266124167405607	9.424466792524372	-0.0002002159367161198
B	6.290739046802508	10.86008550816228	0.0010679415885294767
B	7.514058484936821	-0.008381636484940481	0.0013675781772223982
N	7.522212464386885	2.9033236486068725	-0.0001259267810944337
B	7.514358500287087	4.338908835492981	-0.00029389355626795226
N	7.523764343833203	7.2496654397240174	-0.00218638556498569
B	7.5150574484897374	8.688657211772465	-0.0001389449990586485
N	7.523597534255347	11.59822569182817	0.00027061079812539315
N	8.792057852622033	0.7279858999850504	0.0011553601202186053
B	8.801069332649806	2.1648193739859827	0.0006948291053126594
N	8.791189587101996	5.077419700873661	0.0004678300907988477
B	8.800402103370763	6.513816441201516	-0.003035189740675582
N	8.792064399650092	9.423481007730928	7.728063216368226e-05
B	8.801066316135067	10.861739082782398	-0.0008600014281259374
B	10.022737507179956	-0.00868323087335093	-0.0028781278381673388
N	10.034003320766425	2.902849183102093	0.0001874163167052892
B	10.02476127969574	4.33986770704347	0.0013602529987214009
N	10.031968502781316	7.2508940092633205	0.00033243373789994685
B	10.025546963744157	8.687113972014375	-4.5949207004362426e-05
N	10.045677212076251	11.599184088179905	0.00031484051783540323
N	11.288530007329083	0.7282931408150374	0.0003087558887663469
B	11.278343400888986	2.1655016829426628	-0.002080969874473249
N	11.287451447714433	5.0759103438260675	0.0004905357240991607
B	11.279840762637976	6.514583509617197	-0.0007847759667988425
N	11.287838166153099	9.423741870819471	0.0011601157653536253
B	11.280658767406562	10.86074740542353	0.0013694087870033827
B	12.565689897609408	-0.00872600656940478	-0.0009135461440417747
N	12.542089501257335	2.902967816822839	-0.0005340976165579363
B	12.564997184749547	4.340341802449209	0.0005433300347164108
N	12.556495413135892	7.25014276249578	-0.0007262588152453741
B	12.565293158832667	8.689598999209881	-0.00012461173675338674
N	12.5562847763264	11.597350271203243	0.0007783654463425542
N	13.81223969089616	0.7313195738751933	-0.0003061803627671668
B	13.820544768272688	2.166331996326328	0.0009192830636371959
N	13.813225901353174	5.076780338583489	0.0005042038300830241
B	13.820584312568576	6.51124033350357	0.00038935092958136534
N	13.813013503926644	9.42399991373482	-0.0003652748707796195
B	13.819189905883196	10.860711337899913	-9.958042512149819e-05
72
Time Step: 25
B	-0.023903280818407518	-0.011462396373099619	0.0013450796209785955
N	-0.008537725752457231	2.90426430907273	0.0011717233247518623
B	-0.024659446354286307	4.3346080095710775	1.6041441600575417e-05
N	-0.010865634786213147	7.253225021013628	0.00016456422552211684
B	-0.022706209934569694	8.682432612912894	0.0012213942505998202
N	-0.008901106481791848	11.600219890028201	-0.0010592972709379208
N	1.2423369017439403	0.7313340127829246	-0.0016267159685213017
B	1.2775831779294302	2.1615511422176668	0.0011032838756924142
N	1.2442565126241	5.077902901442337	-0.0011009257890628925
B	1.2310233174956855	6.509251665127936	0.0018661714128006951
N	1.265391861320731	9.42471280374165	0.0003681801356064131
B	1.277844892958799	10.85596245643675	0.0016094786009486198
B	2.4872952120480702	-0.013208070843035791	0.00021481824427122676
N	2.5001393733041026	2.905201037088604	-0.0007830898045892089
B	2.530695355986395	4.336049490415279	-0.0006560685663582253
N	2.520928232575823	7.251854775393777	0.0006228695703358128
B	2.4882682973269605	8.682835138603176	0.0014050881320518483
N	2.5207044409509067	11.600249132213092	0.0017374437925445087
N	3.775166745817102	0.7312946596985687	-0.0007362543426247168
B	3.74322678111828	2.1621569207910483	0.0007368183747681588
N	3.754588015941122	5.078868393411319	0.0006953463200442143
B	3.742259246278564	6.50977765213396	-0.0014963467729761637
N	3.774692085796545	9.425539727936664	-0.0006250517296278223
B	3.743928333043261	10.856407862544906	-0.0003700158990819813
B	4.996624088144149	-0.013512212134069453	-0.0003617622290916036
N	5.030464689796656	2.903299759546622	-0.00023077851242743962
B	4.995875423155181	4.333117691236243	0.0009386396480387351
N	5.00781858366789	7.253256812089851	0.0011164492286188262
B	4.996705452067822	8.683016015732324	-0.000638632630473166
N	5.031831965008434	11.599970014478552	-0.0015815528895808941
N	6.261775493178733	0.7304668358056073	0.0005048372425095226
B	6.299670252990301	2.1600911186309433	-0.0003936923889839847
N	6.261690480089802	5.079956260530412	0.0002925503678128015
B	6.250278333425078	6.508238855479087	-0.0030181148686594175
N	6.261400754350476	9.426372532216384	-0.00025248487730137307
B	6.298601660407005	10.85535934243456	0.001359480888783257
B	7.506444326506947	-0.012014696585009402	0.0017196845218414984
N	7.519015216705418	2.905258064866236	-0.00015883204185532132
B	7.506772723171134	4.335241341150182	-0.0003747907104510233
N	7.520343968145373	7.250997174150947	-0.002734451840152012
B	7.507540300914251	8.685149122596751	-0.0001656405632204925
N	7.520634697220374	11.599942209791882	0.0003374975296794875
N	8.795111160902318	0.7296574687984667	0.0014527549124046845
B	8.80808422737438	2.1607549538838735	0.0008736053959449301
N	8.794086231340009	5.079405483174	0.0005920069657779071
B	8.807409890432506	6.5098517666834566	-0.0038304238196284605
N	8.795225278740027	9.425057497754215	9.926111567923733e-05
B	8.808624966637547	10.857991775476938	-0.0010908931247337265
B	10.014788279709718	-0.013124379948739051	-0.003651211762642826
N	10.030356422225978	2.9052319839950624	0.00023829783707765488
B	10.016966759900239	4.335464604631879	0.0017154034067124078
N	10.027929849603861	7.2532271863600695	0.0004266221576879074
B	10.017994151203872	8.682550874468804	-6.762941823989321e-05
N	10.04934183231854	11.601597499000846	0.000401642151699888
N	11.285076324070625	0.7297166907847025	0.0003990023483837513
B	11.269970254278643	2.1613228649085916	-0.0026315914917411434
N	11.283771784215741	5.077318093739636	0.0006141006967473735
B	11.272317768990163	6.511042710224747	-0.0009915987325186469
N	11.284226370652195	9.425073639809305	0.0014551607707620267
B	11.273706488748898	10.856571102128761	0.0017210304258209385
B	12.573309519335956	-0.01249068441836287	-0.0011593044950268328
N	12.538276947865866	2.904559065467657	-0.0006710455587294701
B	12.572512369401199	4.336867490996927	0.0006844872937768547
N	12.559987087844512	7.251613426338712	-0.0009106651380208176
B	12.572805928901962	8.686256570517244	-0.00015988315277475613
N	12.55968597897865	11.59861311820819	0.0009761677219542609
N	13.816064832474455	0.734205618120485	-0.000385988889979354
B	13.827504543922153	2.1627052628045154	0.0011632945358892913
N	13.8172707528129	5.079047489845847	0.0006313772137550787
B	13.82825030804517	6.506438831782525	0.0004944775722869009
N	13.817089587712967	9.42614437616908	-0.0004605879711322352
B	13.826718567940746	10.856097187659412	-0.00012577008373724813
72
Time Step: 30
B	-0.03267309964496963	-0.016395268383284093	0.0016585407892169036
N	-0.011464130717912167	2.9061344280748367	0.0014091774104655521
B	-0.03322431941115192	4.329490059806403	1.7437475730054077e-05
N	-0.015448916487376832	7.256013928548304	0.00018775360711069332
B	-0.029925483904469707	8.678087830478251	0.0014864176380406018
N	-0.011920747218996816	11.60210144312193	-0.001286733269763368
N	1.2367013270866747	0.7336212480994858	-0.001970956012695059
B	1.285134284123862	2.157351991048982	0.0013488582342553435
N	1.2400806206802562	5.079205264788078	-0.0013316211886929708
B	1.2227658177981953	6.505638806479534	0.0022719126524392056
N	1.2686224347803143	9.426265818783214	0.0004339201539659526
B	1.286089921771113	10.85201044818026	0.0019548619520130474
B	2.4789737279818995	-0.016865335755649337	0.00026422538997760613
N	2.4957098889583254	2.908027390630468	-0.0009502440203972457
B	2.5379156090984525	4.331908758999351	-0.0007911101498454963
N	2.524276650550244	7.253630779074211	0.0007472981755952156
B	2.48098558467835	8.67842572606883	0.0017093799215256045
N	2.5253073774624655	11.602847033458305	0.0020942743100758952
N	3.7784399877936354	0.7333506696763864	-0.0008906677509813196
B	3.7350250328684518	2.1585973724597958	0.0009059363059327316
N	3.750121632958453	5.081623447351539	0.0008420435471623786
B	3.733771081816146	6.5047446941147005	-0.001838674766490996
N	3.7779092610653144	9.42729222876939	-0.0007565000162120959
B	3.7368193549068054	10.85205004149168	-0.0004463727288126267
B	4.987794098686088	-0.018713757821572287	-0.0004318247549258076
N	5.034682546625636	2.904447622623526	-0.00028226563914382654
B	4.9862220776584065	4.328351925507886	0.001138802886999101
N	5.002318585797694	7.255566408095599	0.0013642457103645955
B	4.987998507866342	8.677925298950466	-0.0007789965792987563
N	5.036220051179954	11.601265481865653	-0.001909682493243018
N	6.2559683370429156	0.7326089752360694	0.0006051123852295543
B	6.308417359330377	2.1549523114303604	-0.00047993375432876675
N	6.255999967685947	5.082274961486472	0.00036049958087637675
B	6.240693804592568	6.503943985773761	-0.0036622870361540803
N	6.255563645996595	9.42845758126395	-0.00030648652413014463
B	6.307382547357271	10.850123247854453	0.0016674100456167244
B	7.4980527204651395	-0.015557285970346854	0.0020788086345888837
N	7.515766634482812	2.907272896572789	-0.00019241072789657275
B	7.498383296474996	4.3317519998076675	-0.00046031502521303976
N	7.516380657553722	7.252196712499684	-0.003283873500591573
B	7.499179520064097	8.681644873012662	-0.000186298336078801
N	7.517567102103047	11.601766495938637	0.0004033099324517887
N	8.798226388303437	0.7314409568048118	0.001756610398780442
B	8.815341856887192	2.1565133320053764	0.0010552765824040926
N	8.797083699900874	5.081470119313827	0.0007211905096400471
B	8.814707544465504	6.505643140859715	-0.004651870343426984
N	8.798503006131883	9.426764431807626	0.0001231109700549704
B	8.816901737758709	10.854248086933428	-0.0013321156804792073
B	10.006088388522075	-0.01808425203390594	-0.004461670315370353
N	10.025957578372259	2.908116469501609	0.00029176998287685693
B	10.008255308148344	4.33050956112321	0.0020810116289784945
N	10.023220283696903	7.256020890529963	0.0005288567782768656
B	10.009552862253832	8.677450431555513	-9.599421718220725e-05
N	10.053826363512933	11.604476862501633	0.0004943243928729435
N	11.28110235238037	0.7309573986385756	0.0004977538623244972
B	11.260371590867626	2.156840466393011	-0.003202925396215129
N	11.27959205287784	5.078596094513138	0.0007385073502405869
B	11.263995079149666	6.5075039610630245	-0.0012059038811151183
N	11.280100406804841	9.426248150210677	0.001753073527290646
B	11.266340454481487	10.8521778362075	0.0020788262776777564
B	12.581720575391506	-0.01619836279656823	-0.0014164912662300003
N	12.53390767380363	2.9059852858893045	-0.0008101502112857419
B	12.580871677718235	4.333453764423933	0.0008294710693400238
N	12.564015754626562	7.252959985194844	-0.0010969216145632712
B	12.581094933665133	8.682876353122717	-0.0001969849667479267
N	12.563609706875534	11.599745955178195	0.001176388878875835
N	13.820548574721505	0.737533196243165	-0.0004683672973601236
B	13.834736683031768	2.158987795273207	0.0014163988684390897
N	13.821959032537189	5.081757948073899	0.0007593658974025155
B	13.836713344488253	6.501225339735681	0.0006045033531625388
N	13.82186184923234	9.428771857608192	-0.0005588081199754888
B	13.835170695427605	10.850977731876602	-0.00015218200663776838
72
Time Step: 35
B	-0.04191517255037112	-0.021804619843955462	0.0019973156017020835
N	-0.01427594734689406	2.907950649155005	0.0016484315227123783
B	-0.04207839363530731	4.323999696866767	1.6668583581481225e-05
N	-0.02065353975456424	7.259233627022052	0.0002051850081526942
B	-0.03687020318283115	8.673868393185304	0.001763600997049918
N	-0.014824997736407181	11.603944969510907	-0.0015225771841903793
N	1.2299036710180287	0.7359738053840659	-0.0023257928494499064
B	1.2926000091382175	2.1532022142138136	0.0016100990656654518
N	1.2354720630209237	5.08014026413677	-0.0015682596416951302
B	1.2141547817021379	6.502501745843955	0.0026958429246615634
N	1.2717175253913278	9.427802632989916	0.0004951096937388081
B	1.2947704466176357	10.848538734141995	0.0023119535238188857
B	2.470116949672143	-0.019952164731333977	0.0003160747123826406
N	2.4905971047034403	2.9113109662148866	-0.0011236329292618368
B	2.54505010113178	4.32785086501907	-0.0009289531379316089
N	2.5275085130863637	7.255384793138952	0.0008722294366515571
B	2.4738157824946563	8.674047497114483	0.002025962771423887
N	2.530596240663503	11.60589723612366	0.002456719305209839
N	3.7816268947965526	0.7353894766236363	-0.0010490490496378843
B	3.7263153257556474	2.1555055830563203	0.0010870411074497919
N	3.7450207976953314	5.084819083063778	0.0009935984689519455
B	3.7248249499558126	6.499328524030155	-0.00220583563643124
N	3.781057553702305	9.429041969939261	-0.0008909459248320755
B	3.7298685874692628	10.847774117629804	-0.0005254777522717105
B	4.978366533415296	-0.02434386012715989	-0.0004996148837438656
N	5.039405561851922	2.9051916418171384	-0.0003366230514841645
B	4.97542988338985	4.323641157173656	0.0013459445320549255
N	4.995689068405734	7.257942905910023	0.0016258055485492038
B	4.97878559165032	8.672472992383938	-0.0009270406460468325
N	5.041083362188782	11.602158075692934	-0.002243841536144533
N	6.248969642032343	0.7348116966881608	0.0007050529983881237
B	6.317605870251433	2.14949986911844	-0.0005706783581244977
N	6.249208205286808	5.084601710249877	0.0004343507813574622
B	6.2300993041744	6.499903287408436	-0.004330355057452574
N	6.248554090246936	9.4305864248191	-0.0003628150525843453
B	6.316706226391146	10.84461039899509	0.001995209617229802
B	7.489202957661945	-0.018617497293472406	0.0024465496630495524
N	7.512704360045105	2.909262710985164	-0.00022659557396310516
B	7.4895105020382235	4.3288414546644285	-0.0005511904292239946
N	7.511973721221416	7.253066128180607	-0.0038352056181870852
B	7.490305397412452	8.678514330363969	-0.00019915967990935705
N	7.514637763891899	11.603589894299231	0.00046737114830743443
N	8.801157992008752	0.7332186589048589	0.0020689159610605
B	8.822342223075575	2.1523605635603076	0.0012400919067426374
N	8.799941909580584	5.083487524716704	0.0008566077156959593
B	8.821764746199651	6.501468521149675	-0.005506687997215166
N	8.80165113146872	9.42849072767008	0.0001493104213727956
B	8.82556345432772	10.850890724363484	-0.0015856182779716299
B	9.997025307161152	-0.023313495364529757	-0.0053188923448895245
N	10.020883089752392	2.911463503695432	0.0003482363135507127
B	9.99903441349526	4.325274259967879	0.002459638327103263