72
Time Step: 10
B	-0.030748204936714544	0.005793165205023019	0.0003039126315593399
N	0.017980061350926772	2.8685718592957135	0.00043629783819268734
B	-0.07940547361305768	4.313951013186234	-0.01459158897119586
N	0.011250666062135256	7.243305490754251	0.013246562300175685
B	0.007101076963270991	8.687483043811973	0.003279868120806599
N	0.03205594781250762	11.610761513323572	-0.0033558489843455216
N	1.2566236237608586	0.7305818366444127	0.01774485107255879
B	1.269699863055956	2.200783027943509	-0.04162218246669644
N	1.2384764487499353	5.0880903882429935	0.017150030086917272
B	1.2606089246159924	6.511898719571823	-0.012563721155442098
N	1.2823197224279315	9.427996828044735	0.014358334381446583
B	1.3179573609817636	10.837964449691098	-0.008978474677790955
B	2.500396460162016	-0.002711697919481764	-0.014055787475994376
N	2.530730354301654	2.8970634387017893	0.03668999925253606
B	2.491639791193538	4.355807571850158	0.0006467761974524217
N	2.50802248918832	7.24680967880797	0.008893723102861746
B	2.5506614176790396	8.687413041772233	-0.03621717484723667
N	2.4947977077195373	11.602384793304644	-0.01484305619114696
N	3.7731008866035336	0.7318435437209309	0.025555857562240592
B	3.7565144444052585	2.211875588229762	0.01481057786988656
N	3.787994591812432	5.057577425769978	-0.019288936037697095
B	3.7409370348285877	6.543192029067285	0.0039347179923004605
N	3.7404327515548914	9.440928912804539	0.005612804576983287
B	3.7499499983677436	10.859811013863148	0.021485528312692827
B	5.003920823379155	-0.005487670404442963	-0.02420407237029642
N	5.030891902548982	2.9227429679400765	0.000532723075719129
B	4.998906552014925	4.343122163577339	0.02682059212089124
N	5.034826206058361	7.249624819762511	-0.010042004917880407
B	5.07478220058322	8.718156871763103	-0.03700370953236807
N	4.998221476615835	11.616154134452113	-0.044197278849132306
N	6.253575548115582	0.7439447264009977	0.002885064333769964
B	6.251499073394749	2.154821607094994	-0.012226324541972575
N	6.247566336648198	5.0819569158442714	0.025224974733698176
B	6.310914214062293	6.551906615410736	0.016484181005640353
N	6.26974518704884	9.411448457505974	9.257321585178546e-05
B	6.241497503309461	10.818886607156209	-0.004471807225110486
B	7.491274859878725	-0.012328447537725091	-0.008607864476437327
N	7.515532895543162	2.8741981304402024	0.002644238954720667
B	7.5350846544836765	4.32005982234174	-0.020623445531193652
N	7.515309670106181	7.246571585624611	0.011193241867282688
B	7.565314451788683	8.678423737852816	-0.029756182190189207
N	7.530721450733159	11.556556994617017	-0.006732899327591883
N	8.80616102785316	0.6907611516424516	0.020960082375697537
B	8.795330110059206	2.167249534190483	0.0032537369211462215
N	8.80507360130873	5.057226137463794	0.022509022606822183
B	8.769518465659285	6.514776137908685	-0.02621560006555204
N	8.776421469496404	9.427714468881113	-0.016760326184639726
B	8.77226195015932	10.867418905711753	-0.014772302631315721
B	9.98431251771913	0.030575898788297924	0.00013930793691349424
N	10.066281341848832	2.904229580712713	-0.010750202533223887
B	10.047045599016467	4.345154526611677	-0.011639241442133531
N	10.033479582271832	7.271334825198758	0.015374890810342393
B	10.042261721230595	8.700765182399044	0.019645162048614804
N	10.057985396656699	11.595696312173226	0.004168327232525778
N	11.300576856588332	0.7401366287818733	-0.025795573834817512
B	11.272835456315853	2.2127065882379795	0.024299638947636162
N	11.268295289338043	5.081999341758078	-0.01989022195762563
B	11.336233858527974	6.551052615080782	0.013280243384923729
N	11.329466175089827	9.429535324263263	0.029308514555348726
B	11.290045726129197	10.877664827904958	-0.02316349437472062
B	12.525519392696502	-0.017224446093655844	0.006351730172247136
N	12.5640622557726	2.869131082622239	0.01054925172868648
B	12.535270262549307	4.360558287532591	0.014763954859897604
N	12.537775144092498	7.272831291215697	-0.023734178208643354
B	12.55637409996716	8.676477080145865	-0.0032821112426238397
N	12.591130292096144	11.575482536624943	0.013284048560449782
N	13.84221432153672	0.7124480644664049	0.012886009535323484
B	13.801620947992845	2.1380470561521157	0.024592455327273048
N	13.785151718386853	5.102891850186044	-0.007625149471131203
B	13.831622143542942	6.512027880736398	-0.016969015476774076
N	13.782269719546749	9.390094037511604	0.036690751938327576
B	13.785446434803333	10.906866790690461	0.02168786224727619
72
Time Step: 20
B	12.854048555437652	11.447567248657496	-8.349040587859403
N	1.732737513280332	-0.10345892576626858	0.038058924179333514
B	6.734543115982952	11.169453703502436	-1.8889124111516358
N	0.5790739619981828	6.454113046288381	1.177720978639572
B	0.6273779167000626	7.823116913514407	0.30215503007332156
N	2.96763241898738	0.22515686221348785	0.13976059292679954
N	1.3615794563486008	1.3530031968151608	1.8046456875394845
B	2.8988737717505373	4.77127935247819	-4.221822810841405
N	-0.5114824074875683	6.604874102410219	1.7522716193632997
B	1.9438897485962985	5.449112501906476	-1.158180640382635
N	4.033032958928948	10.127436194779964	1.444490130370802
B	6.1598265964453445	5.822347365269228	-154.18127635738426
B	1.7273941247821254	0.17213707203750497	-1.81344993964675
N	4.291106756953342	2.766221691633923	3.872991426300404
B	0.7762670235563702	5.07771597305641	0.062362557093605275
N	13.156772568329083	8.620124203729993	2.2140294556741265
B	6.426858645735471	7.729763445512894	-3.6737939707328096
N	1.2392621743816616	12.104036371194022	-1.8266031010164505
N	4.613684777637991	1.486238170227089	2.5858663697224618
B	3.2567145272092617	5.911274522179575	0.9798859387974183
N	5.992913610598729	3.610518085083481	-1.9589963417026166
B	-149189.4060020575	6603.869618844254	-208660.7189676204
N	3.5555201599771937	2.7884968398733534	67.13435520561664
B	2.6077407459524773	10.575178016267689	2.685864411155067
B	3.3532129047547774	-0.4215948909266653	-2.2709746291233794
N	6.163863314483875	5.340864095112206	0.05244263749841044
B	2.9153169060982367	3.8214490752162322	2.855843707933923
N	10.37452765199828	4.587615913368672	0.4858778686240064
B	9.79358500768279	10.46810624039599	-4.358518028738588
N	2.8533422486690267	0.654642181403324	-4.548292152788102
N	4.078445792241855	1.6101467317965537	0.8325276180747609
B	85429.76516923797	-3766.959523347401	116090.1714590762
N	3.480972731464994	6.033117193693	2.549907626580578
B	-6359.661701128187	-3553.054131975325	394.12796991607
N	6.1168325820677145	8.357024143314156	0.2703413904611471
B	2.643903661514005	6.044535483464831	-0.49653008818732514
B	3.55872633476556	11.746035407067025	-0.8731826919289304
N	6.025445898272067	0.4465091126243509	0.2684143569238402
B	7.929721210707401	1.5023280159418757	-2.0925168356535866
N	2728.3906548235454	1509.150790288935	953.0913485980459
B	10.922713655815514	6.860485887835478	-3.0133634749812725
N	8.005874241939622	7.685871758050667	-0.7256826949574222
N	-53.383334096917736	0.07540994602844187	111.23152003017101
B	9.935760315833246	1.4260502990192314	0.32876829308467376
N	6.479828104650507	6.06451736257956	-1.0051784455151092
B	7.342223921342437	5.732451392852803	-2.659006421886459
N	8.043943606581307	10.012801113566546	-1.7285121466298554
B	7.649498656432153	10.926578463129461	-1.4480782344723369
B	325.080519562137	6.108803024938805	-249.06295990721082
N	12.549438487348079	4.7816301598328526	-1.2022544569064493
B	10.615972192643467	3.966009327591351	-1.1778363850236278
N	9.149266272868715	9.36289237603596	1.4532911474693075
B	10.642596872942732	10.02257513918894	2.2159839590179193
N	9.932039485485697	9.512960071265427	-0.09360717648742259
N	11.79136897383104	2.321251406474148	-2.6096694112240444
B	4.209897306001068	0.10514039660190688	10.584812333965225
N	8.564010335313391	6.0587031587381865	-2.0128557270005145
B	-0.3592791612978381	7.423512877775233	3.4530855673555227
N	-0.34667787762794333	10.344521191618329	2.964342791767155
B	10.74955740909048	11.586524323702783	-2.359657322245376
B	-0.5154092058445983	3.2753897201057374	1.862030073834073
N	14.010001222387075	-0.028431913723667934	1.0423072381811844
B	11.160781081521828	5.526509276329732	1.4975657141336947
N	11.132171361697155	9.54972282599368	-2.7398921424015645
B	-0.5812032482750862	9.382282305780713	-1.706719971773549
N	11.391885718319509	10.82532898000967	0.549618363293104
N	2.1014895339769377	6.143448110249925	4.971597338876377
B	13.599267966429927	11.54585178219721	2.4906921166856435
N	11.834380405651835	8.135434336452699	-0.770169155307697
B	1.2517050221389978	5.55656708768082	-1.8416594023467243
N	11.584303149541112	6.3999424770766025	3.7231929937635098
B	3.0350849416512315	10.043523352535766	5.609485704950661
72
Time Step: 30
B	-45.879502111181765	-1686.432582335486	951.2013824356609
N	21.62777838402363	-166.3960585466788	2.8296683590258125
B	-710.1246242338964	-749.2238404173949	-229.68554647478874
N	13.527729589264823	-0.11325213690061808	95.94261010240648
B	1.7987153800962012	1.605163870145354	26.546224542749002
N	124.80945650825493	37.72687512285542	64.06923105165453
N	12.23398993341014	11.188665221355116	181.4113696843713
B	15.233647601337609	131.3797612050232	-422.2500352064578
N	-33.51281062314726	21.03491406788929	180.4668281578859
B	33.41305796279775	5.864067209026269	-47.7486672548743
N	127.6585109699605	12.054550941569332	142.41844554279066
B	4589.6261782809015	-6037.537384924268	-2135.7687058123647
B	12.92118985452728	8.767083998421784	-224.43093398166832
N	24.092422518312308	1.8803308482633792	391.71020126618345
B	-20.18694525044859	11.908569729512742	6.367206259230174
N	-439.1640070212317	91.63730876148769	286.36906665289126
B	243.43367547654367	3.2501252915411367	-367.4534890919315
N	8.703826735245057	4.240596225413675	-212.5233791581507
N	13.334207008729276	11.691998618170524	258.697688599949
B	1.892743318200365	244.67937992367663	74.48381411250996
N	75.75926264741116	-10.566096633294512	-196.0913537350731
B	-37462632.56830922	1669930.9630517594	-54353439.924742155
N	-1924.7735543274653	2563.4639399667026	-367.83154168409305
B	13.174115764896497	2.352627184568121	293.159421158083
B	-9.225893091960149	4.065547232498567	-218.2259917938577
N	14.101105338855735	116.6220460014088	5.347206586329616
B	-47.302468867424224	5.448537450632885	297.8278206316698
N	758.8758918204215	1923.9632011717524	203.02270549272808
B	325.29279368405093	50.46944147858514	-447.7718264868665
N	-61.88456777324524	75.42584334973459	-458.80933819476115
N	-62.374293359396134	9.192961278831671	97.42967657470368
B	21456556.855735004	-958972.4234696099	31118973.562645704
N	-122.56773872934039	9.852216718484282	255.03346953875885
B	-817091.1582441863	-461483.5193105785	279616.08109038044
N	12.7033241568746	1.800076972649265	33.49056970629749
B	-215.04965989951475	-332.7867480707559	-50.60471531833399
B	-239.0544981178834	0.544974482408433	-87.28287549619468
N	7.623751591783787	-111.88434522444084	26.84787752809247
B	2.215653509274425	-149.82110498523406	-209.28592225360165
N	357782.22641511355	202158.81370536104	-109939.7816629358
B	196.04444784216835	-44.52705090048053	-301.3853110014721
N	11.396741799012343	-264.1179883512498	-80.53762715869202
N	-21895.893537462838	1287.666356779144	444.6347977251021
B	3.8639335146251277	4.464871011734945	32.930395524564105
N	-511.54432155126204	228.5079890006005	-432.1943043813637
B	0.10121398293030026	5.755353742224962	-265.96618625974594
N	5.960872960388574	8.692872692212504	-180.37115692474785
B	13.638809525349043	3.726176285557619	-129.67897282567324
B	50306.21688455237	-3568.6926133120505	-7922.882512480053
N	125.64457819703836	182.32936309459362	-109.63337501149277
B	6.860698462153284	5.173664823745192	-117.79355597846258
N	11.96949976354539	63.15579968211604	138.0096012655587
B	12.681583307558775	68.65364401330417	238.3768179218487
N	-46.36666307090586	-290.4778193653877	-61.78132192457489
N	0.6463751348768199	29.963410557098044	-261.01568756957346
B	1654.9686238558584	-657.5959931800694	-168.8710858420425
N	-111.20116923769372	-0.49806465606036987	-201.32486130594305
B	151.40458318804343	8.149741815329197	485.4876643260302
N	187.43472942372998	10.539880382068674	296.46958198652925
B	2.142749860795135	3.953343872877218	-236.37466132335032
B	465.17209753853626	707.6343455986349	312.7712237146332
N	30.083170202532006	-157.69004427929022	99.21373554605665
B	9.25301993714111	4.727616496447501	149.78389610467053
N	13.926169894446744	97.96343269194458	-282.7965057532013
B	92.61488775735852	92.7971223054088	-293.39704152476946
N	-16.79711295683823	0.483546436744275	45.374290632886215
N	180.0439550111781	578.0927347566053	590.8911132343709
B	8.270854732935112	-221.77893642419764	249.1950393973633
N	-32.70148984567332	180.88907276052268	-77.01539360199493
B	-0.0487024320585121	12.22637063526638	-252.89376855187572
N	-57.992313402926555	-161.79976795191178	373.35285308878053
B	2019.0456535956969	10.079484532906228	610.3183667147017
72
Time Step: 40
B	-20828.634568773115	-184388.00754074985	-83093.7563152123
N	16920.531865488876	-29709.216020744185	281.9906118211796
B	-87305.44135969377	-89702.11325295201	-3009.348952915436
N	1157.793292309517	-12266.00977052279	-427.56847754528394
B	5992.332461707902	-8316.15014052262	650.9531757355419
N	27218.39186551313	16701.458701219486	457.0162769313231
N	948.8750376657233	6081.914867671148	142.08376940224207
B	16158.111030625663	25705.787946526343	-22225.071274849222
N	-18243.04563230195	14377.598910601111	51.92248203236295
B	18089.72987946648	-11561.800462190819	-706.7973287300915
N	27399.606312148735	6596.326025658211	239.81398682036252
B	477845.6613467266	-623287.070613878	-2180294.51165131
B	-4741.099237187055	7259.821776663922	-2486.179338261998
N	16913.623998688487	-1260.6687534996106	19175.431185304158
B	-17025.90817273354	7086.553945360991	636.8515764300806
N	-60580.6419661135	21306.915764589085	8701.872786441194
B	38853.51535871612	-9445.073690118807	-16745.42300129638
N	-11142.239717204107	1696.2565816603963	-1282.2009849259434
N	8264.78643013757	7423.8280434164135	5869.879911662902
B	-4501.904377614303	37035.04992023944	-575.1233685434718
N	21961.794166406075	-14341.787568468559	390.67290691660037
B	-3768821858.199026	168015553.86634326	-5470811360.502195
N	-209667.08100307174	271544.5682526496	936135.5787693452
B	-9321.588382422733	354.05754405245784	9340.515095948189
B	-16176.536492788076	-3329.9802403927465	-1813.7277083432277
N	11199.22530780692	24158.30023667677	534.8236014737969
B	-19978.481046342687	-4919.002625072512	9795.025513099925
N	90518.41230895404	206775.0817276884	456.7054680032579
B	46784.61366148336	16964.162965377713	-24789.102672412777
N	-21445.075569982135	20466.10596019736	-25884.913942439915
N	-21617.048208587737	5854.634415986342	-242.85542773703423
B	2158584175.3123126	-96492432.37809587	3133387312.681308
N	-27636.838884904864	9392.122169182003	5503.389660820414
B	-81905150.21255	-46267443.597170904	30181811.393136818
N	-684.0470424613898	-10958.654696887612	-644.4865806485452
B	-36893.806016172784	-47129.47510381963	938.576761641079
B	-39409.776943523815	-12728.72111796546	-728.2521559437223
N	-14741.945679084589	-24258.529779000928	684.7941946568326
B	3798.2088834231795	-28195.72440539617	-928.6264641263269
N	35878075.20244413	20280038.66521257	-13179227.082816325
B	33617.61786662694	-18096.840729900927	-10138.580063741923
N	12247.883497541143	-40358.06399946786	-61.73207351824885
N	-2221056.313874055	142960.32104009078	1213784.962567218
B	11294.080636929451	-7387.612984235189	-706.9069046211487
N	-67223.3592873811	35386.41515287471	-23551.106898103637
B	-14127.399779943475	-7687.914411458005	-6596.684170104261
N	-6075.746191653882	2355.060030592954	-44.63563475440833
B	-12790.830103634666	8284.04595862938	-952.7684319574344
B	5063329.253383576	-373962.39424701105	-2755304.837769765
N	26344.558549245663	30850.66265657209	-952.7454305111182
B	5504.733325421766	-3656.8207856547087	220.63448468527417
N	-10097.407151127773	18356.006530318107	-206.35938687443377
B	9101.980226852695	18845.3205315357	3854.4602143051434
N	-20585.63691874833	-43203.11576323219	-230.55279672730728
N	4759.546991239691	15707.739325640414	-6101.61750344037
B	181640.24127884163	-79341.2693508472	161885.53909655716
N	-26997.11912665037	9648.585153881228	-132.52541923763147
B	30237.190818177045	-3701.9873644933996	28688.94554036597
N	33874.9754595773	9030.435799456309	9646.993501505603
B	-5225.9380050145655	6936.5952988951785	-3637.87506149635
B	61943.32277230388	84057.08993397508	11403.69058795376
N	16546.800068255874	-28837.41128095012	-83.64343364658248
B	-13584.92309471131	11533.998338655507	978.4169352927734
N	-14616.073976878535	21852.894419339696	-8288.457866866125
B	24321.62398850009	21347.841122427682	-9462.429197055251
N	-17745.096980497492	-6120.854707877583	527.8415176189746
N	32883.69050271712	70686.58139948409	39182.842702840906
B	-1879.9704686179793	-36467.81775720431	4919.629767523276
N	-19395.68851504281	30369.812915214374	298.46216170659886
B	13273.310552196117	-8321.153274737073	-5358.104683655729
N	-21925.053968686665	-29895.330810970732	17336.318862630545
B	218529.50251935268	-12899.88439746698	41081.206467740696
72
Time Step: 50
B	-2114013.5412349664	-18467459.063382182	-10467589.52608001
N	1721720.340575974	-2996904.7722404953	8198.08495803656
B	-8761746.51490568	-8997904.614506416	-2260975.6895969794
N	130493.74956433474	-1251769.2216091119	927221.3227576859
B	619955.1070944886	-853005.2405797993	243091.6482950148
N	2751486.032766	1695988.2013108826	619751.7208648983
N	109522.37981089708	626068.0951126504	1776209.3237411894
B	1645355.2493330585	2596060.166478659	-4182507.1952391253
N	-1854105.7278001823	1462947.558563923	1767197.4878694802
B	1838630.8120298344	-1181241.8134021754	-446611.66347625176
N	2769503.786430027	677937.0334973224	1389979.3681145776
B	47818358.57819129	-62361153.953509256	-221976168.80620113
B	-495052.5419413454	745278.851043214	-2208661.019766295
N	1720776.181615705	-140429.13718828704	3877547.529589101
B	-1732507.4309210416	727464.6515085085	43685.28859351512
N	-6089637.837875339	2155748.3213473493	2830252.2447652714
B	3914771.0836826726	-967191.0152311533	-3634542.3742217417
N	-1141145.9941111389	183811.41512515873	-2088249.9615617045
N	848319.4087430214	761550.9925232407	2546988.102217959
B	-469791.0164708645	3728985.663951816	714464.1583658583
N	2225474.6845422722	-1460377.4947519945	-1920932.9010279155
B	-376904759330.6707	16802590757.75549	-547118583418.2476
N	-20998807.225877505	27182568.559520938	96566476.60987222
B	-957707.2382011851	48438.109230841415	2894076.0825749603
B	-1647816.9964623991	-349648.11900291726	-2141363.8993632803
N	1144621.0455546128	2441239.6793042133	33482.46309022052
B	-2028005.738793869	-510277.678877387	2939514.794759925
N	9081381.454022313	20704800.494379357	2005824.9817190566
B	4707626.100441412	1721247.075355291	-4438922.187265003
N	-2174673.57579087	2072447.677644961	-4548495.374366955
N	-2191993.839731422	603312.3398867373	945728.6341410892
B	215871360930.37	-9649851341.400719	313362201224.54755
N	-2793973.3535024566	960532.6774155333	2510339.0087889857
B	-8190725965.043132	-4626876364.943202	3022381342.59778
N	-85268.48370428785	-1119917.692082914	311557.7983838672
B	-3719678.841643499	-4739711.870678708	-480143.2755424177
B	-3971391.4214841165	-1298568.8903627521	-844825.1802006966
N	-1504608.2887467206	-2451836.63315665	246479.4259075309
B	398306.93187481357	-2845699.6144464887	-2052862.6806513993
N	3587922282.2053456	2028080937.3759344	-1322087957.198155
B	3390684.3597451043	-1836241.7686299456	-2973858.055337786
N	1250805.9590717538	-4062666.225111129	-778181.1767094738
N	-222152007.74753326	14323139.349371247	124527817.73951651
B	1155225.1509784118	-759508.9585089275	305309.36308080755
N	-6753314.255870366	3564090.6915402845	-4315442.366270333
B	-1441786.8991725836	-789968.4509314812	-2619668.4825545554
N	-629155.8526530812	249905.3358206671	-1766471.0834177204
B	-1308147.1214196354	849229.5841930117	-1263261.7143451334
B	506380542.30328596	-37426246.1176169	-279473500.3634982
N	2663145.355654109	3110597.552004323	-1065263.9509804738
B	570201.3960213831	-382769.82583350013	-1145936.561448941
N	-1035944.4722402592	1860554.639593917	1345356.7417991261
B	932941.2445813658	1909425.5692837762	2345462.799852635
N	-2089422.0624864902	-4347380.470149915	-597107.7002770007
N	495559.0086017211	1596398.8908339725	-2570161.79909052
B	18195076.906777408	-7960622.165117562	18347326.557336483
N	-2730498.314867918	987470.4670076099	-1973252.581212407
B	3053725.214317078	-387629.25799536624	4829034.733144361
N	3417538.448474935	923933.5877068801	2924699.3854534132
B	-542943.4134925507	713114.3508011255	-2323787.915078797
B	6224667.79024884	8431916.208771622	3100495.6270118672
N	1683127.88987359	-2909723.094948034	961630.6396470896
B	-1387911.9345595557	1177374.6305545615	1463841.720854103
N	-1492525.4886541767	2210259.5530841155	-2788854.5939781577
B	2462131.934062773	2159765.801134655	-2906365.6447501034
N	-1805484.483734562	-631168.2401393102	428774.5642162277
N	3318157.745273312	7094449.007872233	5878378.001663494
B	-205613.5028037094	-3673985.259835215	2451963.102580115
N	-1970603.7910347558	3062175.7571605993	-742153.7823074339
B	1355518.6360150133	-854572.6778119708	-2495879.196194041
N	-2223540.6194970603	-3016161.9951128536	3693632.919816808
B	21884484.589095052	-1316809.832597456	6068170.016570343
72
Time Step: 60
B	-211447413.60785437	-1846787478.2075255	-1050897166.5025594
N	172216610.61162448	-299729373.9542155	2779807.519579575
B	-876220763.2695043	-899831068.2998523	-230037609.75400344
N	13078998.776766853	-125215003.965468	95672110.44628078
B	62031141.970372565	-85334827.84450746	26467161.16022294
N	275193159.52281475	169637576.02227724	64529222.179661594
N	10981782.257134026	62637599.679610565	181362933.32091987
B	164579978.47957635	259644411.57969198	-422190719.5916667
N	-185455283.34458822	146332857.08389607	180461754.02661425
B	183907648.4270666	-118162156.66740063	-47017098.27822844
N	276994831.1982178	67824921.34066373	142343934.7808903
B	4781884559.662647	-6236160755.803046	-22203543598.26118
B	-49541106.21235717	74560095.33769819	-224806145.06256962
N	172121941.34331742	-14070189.540667027	391694757.369969
B	-173295569.10575193	72778187.96782327	6328528.990302019
N	-609010266.8287979	215612802.4396233	286965289.44264835
B	391521437.3160784	-96754698.72933462	-367394237.49626637
N	-114156430.83350463	18408240.829474993	-212765026.01923957
N	84868691.04003142	76187181.00050566	258638810.33284757
B	-47013611.625795886	372936960.6271094	74198392.33180605
N	222591673.12212893	-146076861.77310458	-196033290.29451114
B	-37690498521487.234	1680260124060.231	-54711897769192.79
N	-2099927731.1133208	2718297881.2463503	9661580579.720163
B	-95811181.62007746	4869756.837909737	293347632.8304761
B	-164826772.3934235	-34994375.555255376	-218076381.06485698
N	114501712.47023526	244162291.14605796	5308246.411964892
B	-202845640.91354644	-51059058.86410883	297891491.7194425
N	908182595.0253583	2070520255.319546	204522652.6068244
B	470806684.17843425	172162451.87434664	-447832230.64652413
N	-217512432.99787974	207283518.40612128	-458789541.4168184
N	-219244582.39201486	60361996.44696184	97522877.59102373
B	21587149051345.54	-964985755157.2233	31336245572411.17
N	-279442534.2152577	96087501.76205066	254973900.92160547
B	-819072822357.5011	-462687781413.1062	302244314463.0622
N	-8558621.549886933	-112028734.99068554	33511786.294835433
B	-372013091.80437636	-474010864.98816746	-50568328.505948275
B	-397184465.2755433	-129895499.3748414	-87234517.98467597
N	-150506151.9955104	-245222560.5309216	26805942.597194936
B	39864088.63101386	-284609002.1785557	-209226268.0993787
N	358792357891.8953	202808183722.00797	-132214940968.73201
B	339112267.94759285	-183663648.11863434	-301325805.5827423
N	125121522.91649306	-406306395.89627725	-80570125.64030506
N	-22215262060.513454	1432353955.7424872	12457911095.434448
B	115563241.58512665	-75984557.07097815	32886936.361623686
N	-675377313.3141689	356447431.8902813	-435484568.30349314
B	-144222646.2384366	-79030935.66293378	-265906848.3209997
N	-62952075.89879581	25017846.474828087	-180389115.86171436
B	-130858685.65301974	84956696.96763124	-129474156.30566275
B	50638116756.693535	-3742667532.0146055	-27953273052.936348
N	266358134.46614036	311098200.0467794	-109476384.50597675
B	57054777.0656175	-38306983.890618026	-117741656.15481159
N	-103635560.38115342	186093331.50595382	137881666.86039922
B	93331777.08003269	190980364.00450778	238486296.76368552
N	-208987974.0192607	-434778029.4688181	-62264822.448304325
N	49590414.569649845	159678427.60166714	-260956179.95779845
B	1819553652.8566349	-796101625.3017886	1838871428.381329
N	-273095527.2889947	98782572.21238048	-201265258.16052932
B	305417436.9642071	-38793269.881082654	486843613.493544
N	341798795.1500106	92427162.33844925	296409938.58064413
B	-54329600.36224616	71343803.46102417	-236318791.91680884
B	622512023.9379025	843230741.6525358	313989689.2694032
N	168356146.27040702	-291011205.02165645	99113058.94772069
B	-138835522.48104402	117774351.41214515	149730172.11273515
N	-149298376.35638398	221063838.9795617	-282825468.2051074
B	246258072.34149003	216014475.36235744	-294576687.2000549
N	-180594332.5591411	-63148820.34328257	45233446.834077105
N	331860472.62233275	709483605.2151467	591777893.8977288
B	-20593876.13631285	-367438643.0276363	249136310.3838393
N	-197106323.4430062	306255683.74169916	-76967378.2292215
B	135594960.5822968	-85492638.69153535	-253527988.34723258
N	-222400006.57233453	-301655741.9853012	373303293.01523435
B	2188494902.646665	-131720718.2125963	610757051.0268304
72
Time Step: 70
B	-21144802329.66979	-184678802306.1818	-105095834864.15053
N	17221720547.116478	-29972989205.71173	281920750.9817333
B	-87622137348.12938	-89983160350.39447	-23009681016.19465
N	1307944410.8970191	-12521551391.911358	9572141022.798592
B	6203164737.698179	-8533530001.797275	2650854112.353015
N	27519375417.927685	16963809271.678905	6457456268.059331
N	1098222679.3894472	6263803671.689404	18142015333.038788
B	16458057210.903904	25964492466.461037	-42224991959.234436
N	-18545587954.423393	14633336723.177113	18051897407.90109
B	18390824319.33075	-11816266555.627247	-4706045759.753447
N	27699542481.776997	6782536265.617303	14239719476.058466
B	478188519577.50824	-623616133854.3168	-2220362266543.759
B	-4954161382.653939	7456054657.563198	-22486534549.34289
N	17212253366.91349	-1407059143.4485414	39175395741.40795
B	-17329616645.98884	7277863433.159301	636792899.1611524
N	-60901088075.32105	21561331127.827225	28702449009.23094
B	39152202969.95565	-9675518383.69968	-36745343749.700714
N	-11415699824.172853	1840864095.8244586	-21282422631.787025
N	8486920763.568872	7618763095.358748	25869801033.39581
B	-4701410581.958298	37293747370.50289	7424571209.675823
N	22259226426.28079	-14607738203.168358	-19609249029.642834
B	-3769049874752052.5	168026013467221.34	-5471189818326648.0
N	-209992835029.25757	271829842063.48932	966164970890.7493
B	-9581173529.207705	487014543.2657992	29340683307.620594
B	-16482737221.489534	-3499480032.740501	-21813558097.61423
N	11450225764.3383	24416280351.38143	534764641.29943204
B	-20284624067.788815	-5105950090.947253	29795069184.187702
N	90818318861.55896	207052078651.39615	20458185415.117355
B	47080727401.37774	17216295845.333477	-44789143076.572426
N	-21751303284.606766	20728403504.81375	-45884874145.661964
N	-21924518347.02036	6036243320.714473	9757217773.279284
B	2158714918107772.2	-96498576149653.02	3133624584671073.0
N	-27944313529.79078	9608797323.785564	25503310092.203266
B	-81907282476512.72	-46268778299142.97	30224439606509.504
N	-855908837.5681512	-11202923378.410946	3355514635.9399924
B	-37201369297.47765	-47401139090.29707	-5061366851.5465355
B	-39718506760.081474	-12989601461.382708	-8728183798.432205
N	-15050675432.07188	-24522307863.867416	2684732259.725936
B	3986457167.94492	-28460952172.14949	-20928546809.972107
N	35879235933770.29	20280818475098.777	-13221502222122.125
B	33911285536.13237	-18366417196.679073	-30138500558.323185
N	12512208128.058626	-40630692276.572914	-8061744571.999863
N	-2221526282246.505	143235448508.61404	1245798218864.9275
B	11556379794.39995	-7598502281.877898	3293029636.2159114
N	-67537792128.54402	35644794465.32441	-43554377162.02577
B	-14422323489.564844	-7903140570.423166	-26596604832.165516
N	-6295258989.913066	2501824873.9355693	-18044633593.69138
B	-13085927448.213036	8495716348.871456	-12952543615.437424
B	5063811753105.118	-374266809035.2733	-2795335208310.221
N	26635871954.91476	31109871363.084297	-10952568440.005606
B	5705527253.42523	-3830741303.929071	-11779293615.491074
N	-10363612060.67247	18609383931.701942	13793492678.720407
B	9333230270.025164	19098087121.086906	23854549693.146973
N	-20898858079.096684	-43477855842.89565	-6231016297.251037
N	4959090880.074463	15967894212.244982	-26101537995.82859
B	181955426157.24234	-79610214852.52892	183893261610.78058
N	-27309613334.10167	9878305660.309666	-20132445816.092216
B	30541803521.353207	-3879370245.7498097	48690281489.5335
N	34179939374.70358	9242762950.972689	29646913858.099724
B	-5433010204.637607	7134425628.043329	-23637799192.089806
B	62251262548.10325	84323126199.58899	31404889053.508526
N	16835672893.723751	-29101172311.252502	9916235889.755083
B	-13883611486.529497	11777484943.131205	14978343211.300837
N	-14929898372.529364	22106434695.187325	-28288466829.318035
B	24625867022.484215	21601498345.044632	-29463588842.730537
N	-18059494049.499794	-6314926944.217611	4527680673.820166
N	33186106869.728275	70948412139.50262	59183709483.50427
B	-2059435048.887227	-36743917333.36776	24919551038.509758
N	-19710693198.040146	30625619395.75556	-7701469822.9206295
B	13559554064.610476	-8549312153.6238785	-25358718903.45108
N	-22240061511.25608	-30165626654.56414	37336249302.55701
B	218849551617.80356	-13172124469.772484	61081625152.05283
72
Time Step: 80
B	-2114480308845.2632	-18467880298017.168	-10509591584628.945
N	1722172129107.0012	-2997298985295.0234	28197995097.197105
B	-8762213810743.518	-8998316101473.418	-2300976001660.2593