72
Time Step: 1
B	-0.0011731614922614111	-0.0005558299466497905	7.897906901892265e-05
N	-4.818502871110972e-05	2.8989434550050746	-5.3299212019413716e-05
B	-0.0007572345001594046	4.3473295157886485	0.00015166348980499405
N	-0.0004953840209692465	7.246914482210055	8.363633102684403e-05
B	-0.0010563832556741205	8.695422419814765	0.0002758273695154463
N	-0.0005676189542763996	11.594893026328323	0.00011306530389521837
N	1.254424740781263	0.7248024743045132	-0.00012443429000246815
B	1.2560338532948587	2.1735362069730773	-0.0002028691992935263
N	1.2543015255877727	5.072998098558758	-3.924552159071e-05
B	1.2538709812680386	6.521298014427603	-0.0001603236905371009
N	1.2552518095977792	9.42086463173826	-9.036465801414671e-05
B	1.256101320996087	10.869270817879471	0.00022852687598179781
B	2.5087400685482497	-0.000808486863082154	-0.0003115990707350118
N	2.5095296289784974	2.899303925257361	-4.403375278152489e-05
B	2.511108932974847	4.347339456404208	0.00010640399730259285
N	2.510311293213084	7.24681177177061	8.848970262839312e-05
B	2.5086531243846943	8.695390731577062	-0.00013769062794027862
N	2.510364029119704	11.59521145581778	-2.6084542698890617e-05
N	3.765567542524416	0.7250040565627125	3.7926914139524164e-05
B	3.763927535922581	2.1735955338824136	5.500598656374556e-05
N	3.764571058731723	5.072956968563041	0.00011388254616572023
B	3.764137721935931	6.521392189841709	0.0001062993889934254
N	3.765548382325421	9.42091502780971	-0.00013401412263937626
B	3.764050320963543	10.869466703871046	8.466360220736893e-05
B	5.019107655884574	-0.000605912971813759	-0.00018792807348925862
N	5.020603053850552	2.898932803518936	-4.303617511850032e-05
B	5.0190166900236175	4.3473132100106655	6.81529983796598e-05
N	5.019628526214956	7.246892598537636	-1.1016617952286132e-05
B	5.018884295697274	8.695506900418355	-0.0002883016673551028
N	5.020325266056817	11.595022961683979	2.830350998281024e-05
N	6.274425823209594	0.724924721279539	-0.000277886841788076
B	6.27609267309983	2.1732674310597617	5.797698240100955e-05
N	6.27451892801031	5.072909433529462	-3.4709631915574435e-05
B	6.274154295572936	6.5213876886950475	0.00023402991821294667
N	6.274764505284845	9.420549603986382	1.7194822893223433e-05
B	6.276233207914121	10.869439850025728	0.00011138155180866117
B	7.528789140006201	-0.0007152200612723592	0.00016169569122835936
N	7.529603037513622	2.8988783490581245	2.994234978993047e-06
B	7.5288558941057175	4.34747776687873	-3.6319705861874267e-06
N	7.529246422277373	7.247038396451747	-0.00010938325573722265
B	7.528872406171582	8.695482168798485	1.7531178143941996e-05
N	7.529520073471183	11.594892627917552	5.5883921148657284e-05
N	8.785377510093593	0.7249927321041872	-4.134461035487286e-05
B	8.785896459736147	2.1734129956577326	7.4466619129862675e-06
N	8.785529982073005	5.072906233983325	1.443044167571278e-05
B	8.785995438118107	6.521425903609148	-0.00012415028784203632
N	8.785709231347138	9.42090197700492	3.637456953412678e-05
B	8.78621916864586	10.86926101437527	0.0002116163861962187
B	10.038986688949374	-0.0007058503899949241	-5.3567225146844965e-05
N	10.039461328369322	2.8990386376651447	8.068175570827467e-05
B	10.038936712180014	4.347382540042109	2.530129930029535e-05
N	10.039428960217698	7.246904750787134	0.00013344907479954913
B	10.039085628606934	8.695429632255005	0.00011805141441858845
N	10.040422784394975	11.595088172816705	-0.00011823004434168317
N	11.29474656836353	0.7249777320326785	-0.00010802603835661613
B	11.293756204509153	2.173363405326561	-0.00013429051492674698
N	11.29460572271988	5.072687413001073	9.231319054231463e-05
B	11.293947993132845	6.521420935535919	8.633766420265513e-05
N	11.294580481825545	9.421030938478449	6.316620959976015e-05
B	11.293694019814899	10.869312276588579	-7.13908149677867e-05
B	12.551002164825762	-0.0007177089188094023	-5.2095096531847974e-05
N	12.549543753757337	2.8989327269096203	9.388893365661864e-05
B	12.550958844011069	4.34755919832691	-0.0002239216520630635
N	12.550505649934097	7.246825900673503	-0.00014817267217523484
B	12.551020587905217	8.695515326238658	5.4914924796229216e-05
N	12.550531807636915	11.59487895127235	-0.0001238985479367929
N	13.805506067511459	0.7250313138711004	0.0001152926450502002
B	13.806113953815156	2.17321570724049	-0.000138074857471884
N	13.805358629019624	5.0729636378275975	0.00013488674183681108
B	13.805946769748658	6.521457403940361	-0.00011676133680697489
N	13.805636800851127	9.420802072309577	3.266622822698007e-05
B	13.806267892623453	10.869614217754249	0.0001534430932374646
72
Time Step: 2
B	-0.004373322481109781	-0.0022993573168758746	0.00015858331223832597
N	-0.0009857311849699002	2.89972930067393	-0.0001064650945003068
B	-0.0035666864054993506	4.345480594890493	0.00030455641564579663
N	-0.0019007132908015814	7.2476933266212935	0.0001676967632362785
B	-0.004114209735318437	8.693677466208268	0.0005540212571068705
N	-0.0020049898967785407	11.595630128040847	0.00022593194827371548
N	1.2529183120750325	0.7254609597680307	-0.0002486694572143889
B	1.2590875022561379	2.1718976547719264	-0.00040683751157233577
N	1.2527174267110834	5.073823371569592	-7.879997739930047e-05
B	1.250728926215169	6.51945398419192	-0.0003224038029736874
N	1.2563831302005901	9.421574031573726	-0.00018160896162520144
B	1.2592129673155408	10.867403218818671	0.00045876353459563956
B	2.505486423021302	-0.0027386968609495166	-0.0006255749947450876
N	2.5081481794493166	2.900466425562208	-8.822845690275905e-05
B	2.5142031985085715	4.345542205167942	0.00021367988125326197
N	2.5115039383328512	7.247466483468317	0.00017759951136080325
B	2.5053257927424664	8.693628115220518	-0.00027600378143505965
N	2.5116404092152242	11.596278764783126	-5.243021723424286e-05
N	3.7670064864598776	0.725847268642405	7.664071729323671e-05
B	3.760841925795588	2.172045215704786	0.00011064217158933705
N	3.7632319673857637	5.073776602676783	0.00022785805309072238
B	3.7612347706256593	6.519607923736913	0.00021307265070118314
N	3.7669650315036645	9.421670931308844	-0.0002680848158738749
B	3.761093252467913	10.867772218627408	0.00017027400806422126
B	5.0161739301071595	-0.0023929864737035457	-0.00037649428106125826
N	5.022102198866091	2.8996953390572506	-8.644201345653173e-05
B	5.015980420511351	4.345462250465854	0.00013684649215447859
N	5.018332364527259	7.247638236661843	-2.2292650635421255e-05
B	5.015744898858612	8.693830150027084	-0.0005787355795795885
N	5.02155298682223	11.595875084167442	5.6644616352890535e-05
N	6.272923826310081	0.7257010855853774	-0.0005569380543351137
B	6.279218997466941	2.1713625228320192	0.0001172103194882595
N	6.273107358240959	5.073672153133452	-6.983359870975497e-05
B	6.271246137547684	6.519599690144367	0.00047051991425683666
N	6.273589786141066	9.420960805424182	3.459106517617397e-05
B	6.279479429935588	10.867696578877663	0.0002234136199538701
B	7.5255705612046535	-0.002569795318763084	0.00032536847287238093
N	7.528326024488057	2.8996043377820317	5.93396128683199e-06
B	7.525705813179218	4.345811114250653	-7.279007871977812e-06
N	7.527605566034797	7.247906421209535	-0.0002191973576172808
B	7.525750111250534	8.693819853292286	3.5273131156189885e-05
N	7.5281704752180865	11.59562580984242	0.00011135040160517061
N	8.786630342688673	0.7258246505966982	-8.306414852095187e-05
B	8.788797637368097	2.171662767213399	1.4856183111772528e-05
N	8.78693310435189	5.073656214219474	2.9015581749053423e-05
B	8.788972606894358	6.5196981493452	-0.00024923874899333224
N	8.787289253139015	9.421642997414942	7.252947305209115e-05
B	8.789440653266592	10.867384343080403	0.0004249428398055083
B	10.035950340138884	-0.0025748917049975245	-0.00010681006399592732
N	10.038011829507992	2.8999395745304497	0.00016185563503941545
B	10.03584380091669	4.3455884302025805	5.0247567163792895e-05
N	10.037949877498006	7.247673748841229	0.000267245854189944
B	10.036141688122573	8.693675480248158	0.00023646177450602492
N	10.041757162885323	11.596038570890114	-0.00023713137832599398
N	11.29359315495095	0.7257850412900102	-0.00021617266314470326
B	11.290474675032705	2.171570152546392	-0.00026998751811707427
N	11.293310738287898	5.073213015851445	0.0001852275972557625
B	11.290880994459705	6.51968718824103	0.000173451366180186
N	11.293264901992158	9.421890746750982	0.00012642543268170735
B	11.29040873658507	10.86747885094193	-0.00014277865071292704
B	12.554025920110012	-0.002580393684208928	-0.00010418661512747067
N	12.54819021580661	2.8996935760994393	0.00018869421313566455
B	12.553947773076251	4.345960470735519	-0.00045054842255344227
N	12.551904345687136	7.247486010437171	-0.000296966708375016
B	12.554058314212886	8.693878895030368	0.0001102973105176416
N	12.551952522771716	11.59558348308256	-0.0002482217900887429
N	13.806917006931698	0.7259219733408494	0.00023115393111731118
B	13.809224147307901	2.17129117549331	-0.0002777833303326271
N	13.806632125692099	5.073790994188757	0.0002706146505933607
B	13.808929245968615	6.519727680248788	-0.0002344072298228105
N	13.807180056351454	9.421472881068112	6.493904825917944e-05
B	13.80955252823017	10.86803478963969	0.00030830719288932925
72
Time Step: 3
B	-0.00942563097464055	-0.005144529638540798	0.00023939390554163686
N	-0.0027026264119184825	2.9009579529546663	-0.00015939071938277777
B	-0.008276084238773223	4.34254385166178	0.00045990888138981495
N	-0.004189087222810275	7.248997604488161	0.00025261045463161947
B	-0.008907899342812555	8.690907158319714	0.0008368935587933671
N	-0.004183473872587766	11.596813245626032	0.00033841414075045604
N	1.250445622466542	0.7266042815829759	-0.00037248639910985194
B	1.2639182815013468	2.1692195067030418	-0.0006129878359586391
N	1.250320958263893	5.075037684062691	-0.00011893503547058965
B	1.2457811868874527	6.51665850359739	-0.00048794032043787157
N	1.2582752461787046	9.422730658645378	-0.0002745777652088501
B	1.2641215368989995	10.864590722993725	0.0006924307590160728
B	2.500457364889833	-0.005580891861115928	-0.0009442301233463227
N	2.505876379136853	2.902141607623953	-0.00013274805479238
B	2.5190108306818844	4.342778465665257	0.00032267089484133623
N	2.513466526479668	7.248565159181685	0.00026792506632433526
B	2.500292372121684	8.690864983783888	-0.00041559392397857433
N	2.513809961902627	11.597854777202313	-7.928989588452216e-05
N	3.76919634530156	0.7271279153406778	0.00011688511219430853
B	3.755946255002526	2.169535443144319	0.00016751007219762768
N	3.7610103851047927	5.075118254111221	0.00034201848938985013
B	3.756457511137474	6.51674248254635	0.00032077505553800744
N	3.7691278855590187	9.422867398124948	-0.0004022694263333077
B	3.756377009833063	10.86506407235214	0.0002578006492133911
B	5.011357287410945	-0.00527151644782502	-0.0005664051893228899
N	5.024437897630116	2.9008501580859236	-0.000130575846262259
B	5.010999187730867	4.342577640534561	0.00020661953795761146
N	5.016084476304818	7.248862948352952	-3.407341446242406e-05
B	5.010760357321825	8.691056748552654	-0.0008734379097922664
N	5.023629835644226	11.597119328324311	8.508381805818045e-05
N	6.270461122833097	0.7269533968608818	-0.000838341720798455
B	6.284211691306834	2.1683810234572083	0.00017899573474741047
N	6.270734145083299	5.074913972974283	-0.00010579898724734601
B	6.266379102195327	6.516757844252685	0.0007119233511358584
N	6.271431620627846	9.42186791689833	5.237265615471694e-05
B	6.284552487744854	10.864854275957985	0.0003367493788693671
B	7.520558664170441	-0.005370846476094983	0.0004929557032470445
N	7.526286086502091	2.900782111380315	8.76165859603607e-06
B	7.520764384161283	4.343184970527042	-1.0949484406074363e-05
N	7.5251492198352175	7.249168235743131	-0.0003298689585957258
B	7.520862463436855	8.691200207399133	5.3460750936950216e-05
N	7.526078061226967	11.596798612131431	0.00016599272628278275
N	8.788636969218043	0.7270929721692962	-0.0001255068959207743
B	8.79344665191324	2.168898039897489	2.21872572090016e-05
N	8.789086214310291	5.074850548757004	4.3915084036999285e-05
B	8.793653008178868	6.516970045217527	-0.00037624940508879535
N	8.789614260842676	9.422820798700585	0.00010822575033786098
B	8.794446838925332	10.864563956884274	0.0006416713101943972
B	10.031064157094669	-0.005499326093391703	-0.00015940371571864618
N	10.035676314265949	2.901361649520729	0.00024402630874804834
B	10.030896855079641	4.342712878517467	7.448513447769085e-05
N	10.03559132328649	7.248967508249662	0.00040175237994925686
B	10.031346166244923	8.690825806981149	0.00035558925350232564
N	10.043982143560381	11.597509829856135	-0.0003573891819913397
N	11.291601205458814	0.7269854626497632	-0.00032454677842827506
B	11.285280640979657	2.1687551503428124	-0.0004084694017786111
N	11.29117533022461	5.074147262195291	0.0002792995934315281
B	11.286006633991816	6.5169801344601135	0.00026203766362375134
N	11.291118032314458	9.423142293863265	0.0001898783096908361
B	11.28542281931113	10.864660258705618	-0.0002141881838202918
B	12.5588697975996	-0.005399887610837772	-0.00015628276414002797
N	12.545998798254551	2.900846765130764	0.0002853060116264023
B	12.558772926648038	4.343379653631543	-0.0006825414454004052
N	12.554129365849375	7.248548615824263	-0.00044697652844032066
B	12.558906121444794	8.691271883809344	0.00016664365438357105
N	12.5541925783698	11.596674238864793	-0.0003733779825965866
N	13.809201123006499	0.7273283534702017	0.0003481712749576854
B	13.814067698906278	2.168394635563661	-0.00042073002245133335
N	13.808799223742731	5.075140974139231	0.0004080470849827535
B	13.81377961229542	6.516899066924982	-0.00035388620763171253
N	13.809599527118008	9.422677593414154	9.640077593780171e-05
B	13.814668763214216	10.865339957612498	0.0004659890741168016
72
Time Step: 4
B	-0.016057475588095012	-0.008954611868754469	0.0003219118959148014
N	-0.005025295332788667	2.90252708840769	-0.00021201739780098486
B	-0.014629208183800115	4.338664475684122	0.0006189520853642086
N	-0.007314927301868978	7.2508167622350825	0.0003388155742439511
B	-0.015034628815562966	8.68733218207711	0.0011266735894940234
N	-0.006913300329746795	11.598343666404446	0.0004503466674309749
N	1.2469544519606248	0.7281681911969755	-0.0004956290769857208
B	1.2701473427432663	2.1657149256752244	-0.0008223805851544253
N	1.247212476036251	5.0764831546720774	-0.00015985667895617196
B	1.23933424540076	6.513200733166882	-0.0006585388592592045
N	1.2607476815102157	9.424237079529782	-0.00037005791998382455
B	1.2705178027678705	10.861125058467577	0.0009312795872936466
B	2.493958568126619	-0.00902654342624087	-0.0012697544270789548
N	2.502748911893641	2.9043123559325075	-0.00017776073832933152
B	2.5251323299777106	4.339292847255262	0.0004341783119217033
N	2.5160290705919577	7.250009376329609	0.0003600223733434488
B	2.493952521532747	8.68732652259191	-0.0005571781923807055
N	2.51683958835336	11.599921660041213	-0.0001069032892128533
N	3.771960697808196	0.728746946721405	0.00015933783856542934
B	3.7495391991686486	2.1663515632805996	0.00022616257617185905
N	3.7579506430689387	5.076969286886885	0.0004564537694443909
B	3.750069902216398	6.512945824454321	0.0004298286017710132
N	3.7718590197886814	9.424406058904307	-0.0005366271831404131
B	3.7502849086689385	10.861565949544495	0.000348262625519892
B	5.004909766102598	-0.009101362511226868	-0.0007585008113551481
N	5.0275246125490884	2.9022385717411194	-0.00017577758574724312
B	5.00423848137942	4.338862880839391	0.0002780104397880871
N	5.012842989689343	7.250499674216127	-4.657602309769428e-05
B	5.004204756155181	8.687325674103027	-0.001174566877510991
N	5.026475175896135	11.598596595069736	0.00011372364263686421
N	6.266987071077927	0.7286119300340422	-0.0011233306574805395
B	6.2908096084946195	2.164472141660764	0.0002447097121865457
N	6.267355059079037	5.076566424186195	-0.00014305922986899763
B	6.259723417472568	6.513065487663919	0.0009606805795769207
N	6.268229827043402	9.423211177170634	7.069105771630376e-05
B	6.291175517001872	10.861049185997025	0.00045205360702167913
B	7.514062892990391	-0.008826376626276429	0.0006663328495312619
N	7.523663153989567	2.902316479019022	1.1413413037627188e-05
B	7.514341880831699	4.339883903879302	-1.4640541490139705e-05
N	7.521976355546923	7.250667841618601	-0.0004418149511705202
B	7.514531542689167	8.687907911759588	7.237307692108687e-05
N	7.523430383321561	11.59831156146185	0.0002194186345325669
N	8.791214578000949	0.7286952446783213	-0.0001689772162743373
B	8.799449310591184	2.1653436324574082	2.9390071356972358e-05
N	8.791804540458509	5.07639041969343	5.929940514783628e-05
B	8.799625520677441	6.513468612980017	-0.0005062573442828752
N	8.792497686946218	9.424334927103066	0.00014318820192146665
B	8.800925168425989	10.861091627804537	0.0008634702308659076
B	10.024592992012373	-0.009317374730068502	-0.00021101972895969069
N	10.032496708972149	2.9032913599936063	0.0003277231378169664
B	10.02437011306083	4.33890717190754	9.766079164076551e-05
N	10.032399787421978	7.250773181543895	0.000537358626626537
B	10.024975764417679	8.687025340525441	0.0004757915116182992
N	10.047062824744362	11.599487774697256	-0.0004797143032606733
N	11.288863880253425	0.7284207472686629	-0.0004332307209747147
B	11.278360745906419	2.1651278397992533	-0.0005510685101293129
N	11.288292065623745	5.075338900447071	0.0003750044889537294
B	11.27963276016297	6.513580639085442	0.00035265563711792017
N	11.288235281553957	9.42462703538575	0.0002536397431988907
B	11.279147200600882	10.861088559825236	-0.0002856908852290698
B	12.565230565392378	-0.008888280669276532	-0.00020841225090164722
N	12.543053939069686	2.9022369221480027	0.0003845750686145106
B	12.565140687708702	4.340093056993265	-0.0009224883397035271
N	12.557083819053217	7.249861023711011	-0.0005987521798398036
B	12.565256436232573	8.687975024262256	0.0002245072123778352
N	12.557154292254252	11.597992802467143	-0.0004997473339701404
N	13.812308564874995	0.7292358767533397	0.0004669687937980828
B	13.82024834947608	2.164772677251709	-0.000568484008581597
N	13.811819732390077	5.077000020333445	0.00054809020070963
B	13.820227822538396	6.513115761421974	-0.00047627655450331325
N	13.812846888849487	9.424408266581255	0.00012658516663091303
B	13.821333168093417	10.861664270751385	0.0006278492539341305
72
Time Step: 5
B	-0.023923507479941396	-0.013556116919968698	0.00040653731902053953
N	-0.00773896779261244	2.904309489814745	-0.00026434702166065
B	-0.022287609669910675	4.3340301060392665	0.0007829294768323035
N	-0.011213654628933162	7.253134382766336	0.000426761739257982
B	-0.02200442512386611	8.683225230484467	0.00142553360290325
N	-0.009965438177605444	11.600100122011554	0.0005615853759698344
N	1.242382968920835	0.7300650530478195	-0.0006177932035111998
B	1.2773094282924722	2.1616450331754944	-0.0010360682058232064
N	1.2435042434137613	5.077967038023414	-0.00020168998653597993
B	1.2317469842427409	6.509435033802642	-0.00083570331838157
N	1.263581117244749	9.42597623518169	-0.000468776853831262
B	1.2780444873951375	10.857364552182888	0.0011771184805939286
B	2.486334457517201	-0.012697558020661814	-0.0016042314984309842
N	2.4988141741603482	2.906956428028227	-0.0002234395919526452
B	2.532090284488023	4.335376204239187	0.0005489689351458086
N	2.5189842948747603	7.2516813121495245	0.00045440680627385955
B	2.486779215018589	8.68328071838739	-0.0007015629975208815
N	2.5206824649373285	11.602457949480764	-0.00013549202030011743
N	3.775088679150368	0.7305891375686869	0.00020460959605906554
B	3.741969303237195	2.1628463305197134	0.0002870959786124759
N	3.7541122485480733	5.079310153739139	0.0005712503369749658
B	3.742407690365553	6.508413152513813	0.0005406153079622097
N	3.774946697923305	9.42617082877697	-0.0006712191509924563
B	3.743287346122204	10.857547353880166	0.0004427599068061522
B	4.997151014493657	-0.013707508626185107	-0.0009538101332684595
N	5.031265334503014	2.9036643605704433	-0.00022236801480415397
B	4.995899997093668	4.3345764796937205	0.00035156184886318777
N	5.0085576035068335	7.252457194012939	-5.997584603653216e-05
B	4.996421350957855	8.682816479054258	-0.0014843429824838912
N	5.029995797026512	11.6001087336505	0.00014272218175726063
N	6.262440601833132	0.7305814092935162	-0.0014132006631511537
B	6.298682861280571	2.1598273113154436	0.0003158568122128596
N	6.262920249844951	5.078535178437594	-0.00018210896384103522
B	6.25149654408463	6.508797027198149	0.0012192291478723655
N	6.263916443579508	9.424904894672157	8.965560981698658e-05
B	6.299007077073893	10.856458835170347	0.0005700166591499716
B	7.506439060453186	-0.012576061031853748	0.0008473132514234378
N	7.520678039298213	2.904093838166362	1.3814910524670979e-05
B	7.506795703932508	4.336261648243154	-1.8336240382043245e-05
N	7.518197558451843	7.252213644969539	-0.0005554392916268299
B	7.5071229713726995	8.68429299617571	9.234700365342812e-05
N	7.520453818607135	11.600047233163313	0.0002712450922075272
N	8.794140726415469	0.7305089853889218	-0.00021373072570415755
B	8.806324141243724	2.161270183588046	3.6402382446694466e-05
N	8.794863454219938	5.078157191889378	7.535649381397971e-05
B	8.806396222184459	6.509465084549501	-0.0006404725295979949
N	8.795714008529474	9.4260673980912	0.00017709138137977484
B	8.808515914252133	10.857325322317386	0.0010919950623217202
B	10.016868309417404	-0.013822603424778835	-0.00026131821215950136
N	10.028530765322671	2.9057076651306817	0.0004135121674040514
B	10.016612083234014	4.334371129698605	0.0001194159961522112
N	10.028439273368843	7.253068285823463	0.0006744952216257543
B	10.01738133663667	8.682467905820852	0.0005974287715197447
N	10.050950854189177	11.601949894473755	-0.0006048531239905676
N	11.28549188960632	0.7298941936359246	-0.0005422757545984319
B	11.269942837721127	2.1609566116036594	-0.0006990652741777628
N	11.284771635474407	5.076599287752027	0.00047271995159088045
B	11.272121399107812	6.509836636969709	0.0004457026880060388
N	11.284728201778659	9.426148675496703	0.0003178442375969833
B	11.272075847513998	10.857035394703999	-0.0003574140215655993
B	12.572748981579362	-0.012690755932776097	-0.00026062551765274115
N	12.539449903096486	2.903674165291267	0.0004873134712630459
B	12.57270340173438	4.336444180620172	-0.0011729059194627264
N	12.560655129895666	7.251233973324379	-0.0007527950389317831
B	12.572747240482101	8.684336156239675	0.00028451912650356273
N	12.56072688573738	11.599346787595413	-0.0006276771890753374
N	13.816171228563483	0.7316252283133824	0.0005882244114350541
B	13.827286957959549	2.1607250684266632	-0.0007226042050249231
N	13.81563391501044	5.079346772378064	0.000691712664957199
B	13.8279236441447	6.508568966914532	-0.0006028535215229883
N	13.81685606802505	9.426647574364555	0.00015495273383497207
B	13.829188864461003	10.857191495281864	0.000795219480117816
72
Time Step: 6
B	-0.03263403804400782	-0.018754497176513008	0.0004935653591616025
N	-0.010610377639175075	2.9061641048033335	-0.00031644499350562606
B	-0.03085668113916328	4.328855541752146	0.0009531202264293896
N	-0.015802338507739086	7.255927425314303	0.0005169109756790001
B	-0.02928998317712002	8.678885559464716	0.0017356637149412626
N	-0.01309311498530997	11.601949501946507	0.000672000817762894
N	1.2366674062514684	0.7321881796484976	-0.0007386210931501249
B	1.2849030536344392	2.1572878659890153	-0.001255128734868717
N	1.239307297688834	5.07928173609317	-0.0002444778574643057
B	1.2233865334715202	6.505744034573682	-0.0010208550994476966
N	1.2665404647230254	9.42782548743093	-0.000571420036101569
B	1.2863409164007888	10.853700333928336	0.0014318432761767372
B	2.477923562871952	-0.016176876494375304	-0.0019496802175751342
N	2.494133190144894	2.910046181244691	-0.00026996266041087334
B	2.539377110114637	4.3313383904873906	0.0006678010538307578
N	2.522108522922941	7.2534571869082045	0.0005515647254903618
B	2.4792683408058216	8.679010175867075	-0.000849664561243599
N	2.5252791136080712	11.605439958671695	-0.0001652561744412965
N	3.7783555125498447	0.7325378749014319	0.00025326216225983906
B	3.7335918467070686	2.159405790726375	0.0003507530571324933
N	3.749567473733182	5.082112548883146	0.0006864892766734853
B	3.733849057612003	6.503375059175401	0.0006534794354061331
N	3.7781665559392548	9.428041212464006	-0.0008061065380547044
B	3.735894079692734	10.8532925812116	0.0005425065492332655
B	4.988438762890098	-0.018898726372838452	-0.0011535934866888301
N	5.035564675970078	2.9049126026579746	-0.00027065362770507773
B	4.986199179118386	4.33000865963152	0.0004278292308257318
N	5.003176286408304	7.2546230039334745	-7.439383925124585e-05
B	4.987792975062418	8.677737117716456	-0.0018051128299443778
N	5.034099587139695	11.601436122725223	0.00017230014756005558
N	6.256757764968463	0.7327439373978158	-0.0017093254041032596
B	6.307462006945051	2.154666573309929	0.00039412233744034694
N	6.257381795724426	5.080703189806802	-0.0002234994379427614
B	6.241940968946799	6.504283010180675	0.0014900326549929
N	6.258423992205933	9.426839769918525	0.00010932988584975862
B	6.307670952545186	10.851289713918957	0.000691373502308599
B	7.498043667230425	-0.016224164728684102	0.001037666343697876
N	7.51757054982275	2.905997076853449	1.5876717255236282e-05
B	7.498484711533695	4.332708576911137	-2.2008070921296942e-05
N	7.51392141347981	7.253598124515705	-0.0006711323839883685
B	7.499000294928698	8.680736069580053	0.0001137829436385103
N	7.517392151550687	11.60188455949712	0.000321085510428299
N	8.797174507425984	0.7324046240841804	-0.0002599808818082987
B	8.813552136197815	2.156963526302702	4.314584606893321e-05
N	8.798019990587965	5.080025199199149	9.229903626654809e-05
B	8.813436956497831	6.505245860075013	-0.0007802798105731424
N	8.79902003216062	9.427896965374782	0.00020954954902388176
B	8.816856603706771	10.85365549779947	0.0013289112114292796
B	10.008259794404248	-0.018774350775532717	-0.00030993465991285054
N	10.02384973231477	2.9085798233289952	0.0005020082100269118
B	10.00801718262546	4.329345156780088	0.00013937489541946573
N	10.023789819654864	7.255817333361881	0.0008136447715029525
B	10.008959183623375	8.677388639510024	0.0007208697227296834
N	10.055585998625402	11.604863109197394	-0.0007335957676973701
N	11.281600399594833	0.7311890455845853	-0.0006516999780563229
B	11.26027432511788	2.1565480690596517	-0.0008536961998179564
N	11.28072957617074	5.077722140687441	0.0005727287525428889
B	11.263845023644974	6.50612724732551	0.0005414222066887683
N	11.280711191771896	9.427491644585457	0.00038264901520169785
B	11.264738253564044	10.852779414664658	-0.00042953867742974997
B	12.581053592715156	-0.016422332771754568	-0.000312990356656883
N	12.53527726105043	2.9049543179098247	0.00059430643809279
B	12.581103510547162	4.332806172261455	-0.0014362686014292008
N	12.564728133907279	7.252461350729718	-0.0009095644360701386
B	12.5810059295379	8.68073422724653	0.000347399812568697
N	12.564799667085794	11.600529913267751	-0.0007574838279812616
N	13.820703609700606	0.7344722068485597	0.0007126859397827866
B	13.834671117869998	2.156580838085546	-0.000884693301601308
N	13.820162713140144	5.08214986572697	0.0008399651566606421
B	13.83646271996667	6.503486773517682	-0.0007351583997149287
N	13.821544657572488	9.429365318376552	0.00018086577002601157
B	13.837834623710787	10.852147485670486	0.0009694332246182204
72
Time Step: 7
B	-0.04178324891878047	-0.024349541568849834	0.0005831976000192247
N	-0.013406852225741978	2.9079450466219328	-0.00036843628826268334
B	-0.03991253709940062	4.323366055278566	0.0011308727626644873
N	-0.020981892732645745	7.259165950710138	0.000609737844992261
B	-0.036367844267876356	8.674619324265489	0.0020593771592233388
N	-0.01604963427990462	11.603755029544399	0.0007814671855654344
N	1.229748442258488	0.7344175450412753	-0.0008577017010390822
B	1.2924322388270715	2.1529113711154864	-0.0014807099641005379
N	1.234722567374161	5.080224261779002	-0.0002881916731312637
B	1.214595232332063	6.502502287517777	-0.0012153660405580104
N	1.269394396896895	9.429669083154698	-0.0006786576923730702
B	1.2950763510799428	10.850524020188244	0.001697460773860886
B	2.4690259933936543	-0.019037491536972147	-0.002308111935132185
N	2.4887773502749253	2.9135489146645965	-0.00031751271691275273
B	2.5464933492850945	4.3274860894343306	0.000791461222712629
N	2.5251785623518512	7.2552185679149055	0.0006519721085678183
B	2.4718977459233202	8.674789861116478	-0.0010025215531536975
N	2.5305597031184224	11.60884464895866	-0.000196374846642838
N	3.78153890432875	0.7344882071688373	0.0003058378822091086
B	3.7247367510346363	2.156416706928859	0.00041753312636647207
N	3.7443978578668773	5.085337683580114	0.0008022438800074721
B	3.7247856748676	6.498088803919818	0.0007687376264905914
N	3.7812985727622137	9.429903105774903	-0.0009413470311757169
B	3.728615021197766	10.849074335001365	0.0006488616020855555
B	4.979139820542261	-0.024487181916998564	-0.0013593687657500947
N	5.040337884384634	2.905768090299406	-0.0003209341320017934
B	4.9753458215178945	4.325454047343833	0.0005073894950088799
N	4.996650872643836	7.256866909632427	-8.988552803780983e-05
B	4.978713089512258	8.672312490075	-0.002139431724300532
N	5.03870528226425	11.602354127403867	0.00020274154052555697
N	6.249877999976619	0.7349634105007854	-0.0020131676791054934
B	6.316767520988388	2.1492237365331848	0.00048142658285322106
N	6.250699755116191	5.08293581066731	-0.00026785248451988006
B	6.231303337858269	6.4998907345122605	0.0017756238045401735
N	6.2516923218478855	9.428886469828466	0.0001297337051641526
B	6.316786069298884	10.84576461985865	0.0008169260882826526
B	7.489199694751954	-0.019371072806923153	0.0012391450450527728
N	7.514581224884696	2.907918979173705	1.7488910748994598e-05
B	7.489734972855855	4.329620667539025	-2.5616713014414983e-05
N	7.509245194870721	7.254616972110042	-0.0007892719528060001
B	7.490491290277231	8.677614487183588	0.00013714123757915876
N	7.5144888608936355	11.603711613382771	0.00036853349864987236
N	8.800073882258939	0.7342564361185143	-0.0003079128222449939
B	8.820617847301541	2.1526986751997748	4.9522290257559854e-05
N	8.80103074553318	5.081872367176833	0.0001103715099881623
B	8.820225111499486	6.50108837241003	-0.000927271701515461
N	8.802172413792807	9.429711755882979	0.00024011160320956335
B	8.825614941560001	10.850472936784463	0.0015759210178546246
B	9.999147207748921	-0.0239081486292829	-0.00035646161795061833
N	10.018534749736865	2.9118653518867377	0.0005938874235994883