72
Time Step: 5
B	-1.043355609279217e-05	-6.066723077248176e-06	7.874066494312715e-11
N	-4.5973299279898036e-06	2.898669321635505	-1.4186460429290064e-12
B	-1.0433512223236742e-05	4.3479939644863705	2.7328395217728095e-11
N	-4.593722368269211e-06	7.246669328498743	-3.915486055300664e-11
B	-1.0460268460404089e-05	8.695993949144132	1.321570005418634e-10
N	-4.601235709154042e-06	11.594669328409601	-2.0357965371131988e-11
N	1.2549954061564255	0.7246693284827161	-3.1809133588634256e-11
B	1.2550104490973109	2.1739939490265163	6.897413258361133e-11
N	1.2549954064590891	5.072669328242412	-8.454584294088448e-12
B	1.2549895755423202	6.521993949111236	7.195529961227196e-11
N	1.2550045964258874	9.420669328382326	-2.1859438845060042e-11
B	1.255010449269466	10.869993949109498	2.5901703662955046e-11
B	2.5099895754835053	-6.050781956456047e-06	-5.872021355725103e-12
N	2.5099954103177913	2.898669335361766	-3.1172046414202245e-11
B	2.5100104512044874	4.347993948950018	-3.978145888675498e-11
N	2.5100045895275254	7.246669328359601	3.593123123117478e-11
B	2.5099895577341957	8.69599394904639	5.248470063409665e-12
N	2.510004588932441	11.594669328595693	-4.3118486160549166e-11
N	3.7650045935327965	0.724669328425228	4.0128502854697935e-11
B	3.764989575462011	2.1739939491679996	1.4620117409805238e-11
N	3.7649953984709397	5.072669328640254	8.272129822135236e-12
B	3.764989541654856	6.521993948927132	-2.513545432796342e-11
N	3.7650045846843994	9.420669328358555	2.4393225850057956e-12
B	3.7649895778703812	10.869993949103053	-1.411414149733641e-12
B	5.019989557444015	-6.05105879215896e-06	-7.374864229027405e-11
N	5.020004589707267	2.8986693350850494	1.4342809898889622e-11
B	5.019989559453049	4.347993948948156	-1.815728876231394e-11
N	5.019995414930102	7.246669328524357	-7.685061363142042e-11
B	5.0199895597038315	8.69599394892262	-3.78480651082706e-11
N	5.02000458578537	11.594669328303404	-2.3151995201911353e-11
N	6.274995410060991	0.7246693284679784	2.2267797958555619e-13
B	6.275010449347977	2.173993964496595	-4.830624754672242e-11
N	6.274995410058241	5.072669328494204	-2.5253100536774912e-11
B	6.2749895663333115	6.521993948926334	1.5014150058156002e-11
N	6.274995413955266	9.420669328490339	2.5864239386593528e-11
B	6.275010449360473	10.869993964339914	3.512736354302039e-11
B	7.529989557541782	-6.050771293396025e-06	-1.6280605276294995e-11
N	7.529995410530249	2.8986693351677775	-3.7256681748523503e-11
B	7.5299895665228584	4.347993964674797	-9.104662878590808e-11
N	7.5299954064150505	7.246669328305849	2.1000191398760327e-11
B	7.529989541824005	8.695993949169917	2.4889192027092876e-11
N	7.52999540662225	11.594669328388678	3.3326378738263295e-13
N	8.78500459343675	0.7246693284397602	1.771501595554844e-11
B	8.785010433272415	2.173993933454207	1.4301873616038254e-11
N	8.785004589499225	5.072669335162273	5.5464324998925024e-11
B	8.785010442313855	6.5219939490623755	-4.543996274403704e-11
N	8.785004593411415	9.420669328497295	2.232772322316901e-11
B	8.78501043344609	10.869993949135733	6.330828607059091e-12
B	10.03998956643031	-6.051186329816067e-06	-1.1098481614507085e-11
N	10.039995410259086	2.898669328630693	1.148603964066272e-11
B	10.039989550593079	4.347993948822827	2.403111986776849e-12
N	10.039995406246701	7.246669328561403	-2.0853818673828182e-11
B	10.039989539544605	8.69599394888172	3.5637752609621804e-11
N	10.040004593691686	11.594669328563647	2.3740984963610616e-11
N	11.294995406401883	0.7246693283397642	-5.0443454987621274e-11
B	11.294989566340531	2.1739939645247848	1.9887055334108927e-11
N	11.294995410255323	5.07266933506125	3.222955621323274e-12
B	11.294989566581767	6.521993933566513	3.931371917304112e-11
N	11.29499540647028	9.420669328315794	8.665077364015523e-12
B	11.294989566611482	10.869993949062412	-1.0061388714885482e-12
B	12.55001043124642	-6.050814345109105e-06	-2.2049957998761535e-12
N	12.549995403417492	2.898669321506624	5.0440086876265226e-11
B	12.550010449201018	4.347993949086316	-6.6125915862730374e-12
N	12.550004589688307	7.2466693282931685	3.464194242549209e-11
B	12.550010440220928	8.695993949174008	-3.0572721640030984e-11
N	12.550004588681865	11.594669328310024	-4.522826855069744e-11
N	13.805004593641842	0.7246693285743567	-2.6128770372794468e-11
B	13.805010433268485	2.1739939490314266	3.989832767857399e-12
N	13.805004589804922	5.072669335396709	4.0212195455123835e-12
B	13.8050104335038	6.521993933329479	4.694179298848751e-12
N	13.805004593689471	9.42066932854738	-2.7746569494883515e-11
B	13.805010433584144	10.869993948859266	-2.1991668303174054e-11
72
Time Step: 10
B	-4.1728124104918234e-05	-2.42636109504906e-05	1.5749010540806846e-10
N	-1.83850507683318e-05	2.898677284209101	-2.8388201348578384e-12
B	-4.1728027356889924e-05	4.3479758609845565	5.4659322225177366e-11
N	-1.837391557302932e-05	7.246677313959399	-7.83136971663324e-11
B	-4.183148191265466e-05	8.695975801751063	2.643272645987791e-10
N	-1.8400661235112895e-05	11.59467731128447	-4.0717661161295576e-11
N	1.2549816233684887	0.7246773125035246	-6.362075656738676e-11
B	1.2550417871317825	2.1739758014972472	1.3795541932736185e-10
N	1.2549816281312143	5.0726773095264655	-1.6909761461152307e-11
B	1.2549583096897285	6.521975803077818	1.4391621608693825e-10
N	1.2550183813930902	9.42067731123168	-4.372222338595779e-11
B	1.255041789468356	10.869975803079003	5.1807769342205645e-11
B	2.5099583092963984	-2.419670307433729e-05	-1.1744432567126942e-11
N	2.50998164171172	2.8986773412135975	-6.234576085103547e-11
B	2.510041795659767	4.347975801341855	-7.956538346960175e-11
N	2.5100183540330563	7.246677311184316	7.186274089628503e-11
B	2.5099582401400102	8.695975801541847	1.0496969287337523e-11
N	2.5100183549173005	11.5946773141626	-8.623891304033236e-11
N	3.765018369870329	0.7246773113161457	8.025914144999489e-11
B	3.764958309310672	2.1739758031940504	2.924069548350524e-11
N	3.7649815948215144	5.07267731424744	1.6545499647159554e-11
B	3.7649581727249752	6.521975798787092	-5.02709919094238e-11
N	3.7650183346904833	9.420677311185536	4.879026010583847e-12
B	3.764958320697794	10.869975801660978	-2.821152605600024e-12
B	5.019958235662245	-2.4201183188162333e-05	-1.475037761584827e-10
N	5.020018356654081	2.898677336735996	2.868653789117508e-11
B	5.0199582418154565	4.347975800242764	-3.631560038907387e-11
N	5.0199816586000034	7.246677312581357	-1.5370367244416548e-10
B	5.019958244761763	8.695975798789734	-7.569862808962789e-11
N	5.020018341005546	11.594677309657031	-4.6304436181013044e-11
N	6.2749816389687565	0.7246773124774677	4.4682372266043984e-13
B	6.27504179149845	2.173975861033468	-9.661623234034142e-11
N	6.274981639207274	5.072677312535516	-5.050554068593859e-11
B	6.274958269339371	6.521975800216234	3.003098424482638e-11
N	6.274981654547841	9.420677312528449	5.1729024675744086e-11
B	6.275041791545526	10.869975860694321	7.025795621283981e-11
B	7.529958237794096	-2.4196689523334958e-05	-3.2563255159355854e-11
N	7.529981646299581	2.8986773383229827	-7.451361421862543e-11
B	7.529958273683069	4.347975865294699	-1.8210156510553808e-10
N	7.529981628039682	7.246677309641327	4.2001534239136924e-11
B	7.529958174801863	8.695975803218472	4.977854937976459e-11
N	7.529981630682767	11.594677311252932	6.662487736739791e-13
N	8.785018369442929	0.7246773113336267	3.543092375691216e-11
B	8.785041723689769	2.1739757392662584	2.8605731142086846e-11
N	8.785018353768967	5.072677338323007	1.1093263600848947e-10
B	8.785041759711936	6.521975801571554	-9.088526261416747e-11
N	8.78501836938687	9.4206773114686	4.46554291809056e-11
B	8.785041726274732	10.86997580311684	1.2661152861277816e-11
B	10.039958271565522	-2.4201431830492054e-05	-2.2196844814946975e-11
N	10.039981641831107	2.8986773142277333	2.2971997385854787e-11
B	10.039958208555513	4.34797579857549	4.804823526784376e-12
N	10.039981626002252	7.246677314081848	-4.170897113321357e-11
B	10.039958164174099	8.695975798706911	7.127808856685035e-11
N	10.04001837409025	11.594677314095568	4.748284449208482e-11
N	11.294981627996549	0.7246773097148782	-1.0088879494923781e-10
B	11.294958269376323	2.173975862477462	3.97746642304911e-11
N	11.29498164350689	5.072677336682677	6.44573623950048e-12
B	11.294958273783656	6.521975740910631	7.86297438232962e-11
N	11.294981628134705	9.420677309680212	1.7330654680739503e-11
B	11.294958276070552	10.869975801565582	-2.011325451916603e-12
B	12.550041717440783	-2.419676526064161e-05	-4.406652687151962e-12
N	12.549981615831864	2.8986772825393983	1.0088181450416664e-10
B	12.550041789534198	4.347975803045333	-1.3227056007396752e-11
N	12.550018356365719	7.246677309616012	6.928472867081318e-11
B	12.550041753389676	8.695975803227217	-6.114846317976174e-11
N	12.550018352489724	11.594677309669589	-9.045793215546813e-11
N	13.805018373774637	0.7246773141084354	-5.22592567712059e-11
B	13.80504172367545	2.1739758014890693	7.978649503761447e-12
N	13.805018358295081	5.072677341284445	8.042387314685497e-12
B	13.80504172807587	6.521975736511957	9.388178852606472e-12
N	13.805018373871086	9.420677314075986	-5.5494697644657715e-11
B	13.805041728243461	10.869975798645706	-4.398235180744092e-11
72
Time Step: 15
B	-9.386552655935078e-05	-5.4581096974186e-05	2.362570977461969e-10
N	-4.135037129384599e-05	2.8986905473468463	-4.262049476035823e-12
B	-9.386537615876226e-05	4.3479456990144785	8.199531290202441e-11
N	-4.133791693382592e-05	7.246690622463876	-1.174804873959811e-10
B	-9.408529830371713e-05	8.695945573848965	3.965240547106477e-10
N	-4.13854771786917e-05	11.594690608233426	-6.108081770562792e-11
N	1.2549586479165016	0.7246906144556668	-9.543735848999713e-11
B	1.2550939863952177	2.1739455734407307	2.0695101462254153e-10
N	1.2549586720368582	5.072690599786619	-2.536612517451371e-11
B	1.254906224937288	6.521945581590844	2.1588836643230647e-10
N	1.2550413421020794	9.420690608163916	-6.559169743075434e-11
B	1.2550939980435083	10.869945581611947	7.772255839003163e-11
B	2.509906223321541	-5.4418064998586774e-05	-1.7617621278998934e-11
N	2.5099586962383436	2.898690683634943	-9.3522811924566e-11
B	2.5100940056296834	4.3479455731960215	-1.1935423902388647e-10
N	2.510041281337106	7.2466906081051405	1.0779480841018794e-10
B	2.5099060748985167	8.695945573489164	1.5745526736861094e-11
N	2.510041295917536	11.594690622789205	-1.293632219500789e-10
N	3.76504131683521	0.724690608301177	1.2039405156152657e-10
B	3.7649062234481683	2.1739455817688675	4.3862194622464136e-11
N	3.76495859171466	5.072690622907773	2.4821349981938597e-11
B	3.7649059114100076	6.521945559146632	-7.540669808914928e-11
N	3.7650412378407867	9.420690608104659	7.31949140201859e-12
B	3.764906256148453	10.869945573678386	-4.22753991121983e-12
B	5.019906052222033	-5.444082356005895e-05	-2.2127189407507494e-10
N	5.020041294443139	2.8986906608889305	4.303210197384078e-11
B	5.019906058876835	4.347945567126482	-5.4475958438083436e-11
N	5.0199587278799065	7.24669061456567	-2.3056162171015017e-10
B	5.01990607333991	8.695945559166088	-1.1355418566388525e-10
N	5.020041259269409	11.594690600001206	-6.945776779860362e-11
N	6.274958682992803	0.7246906144359357	6.739050366456559e-13
B	6.27509400886042	2.1739456991501434	-1.4493369133561657e-10
N	6.274958684320108	5.0726906145250075	-7.575666002398463e-11
B	6.274906121401222	6.521945567105216	4.505318756341786e-11
N	6.274958718037112	9.420690614525613	7.759490139766413e-11
B	6.275094008959147	10.869945698600931	1.05395006670772e-10
B	7.529906063281818	-5.4418052978098796e-05	-4.8849993360421405e-11
N	7.529958720101587	2.898690669092428	-1.1177104685689894e-10
B	7.529906143984026	4.3479457215472435	-2.731731122952702e-10
N	7.529958671885669	7.246690599941098	6.300517887773936e-11
B	7.52990592148515	8.695945581846804	7.466823730253234e-11
N	7.5299586849745435	11.594690608219413	9.986761590001283e-13
N	8.785041315227978	0.72469060829395	5.314861487105703e-11
B	8.785093842946972	2.1739454334681447	4.291355462739992e-11
N	8.78504128002435	5.072690669106199	1.6640891763418047e-10
B	8.785093923868626	6.521945573547255	-1.3634123608919303e-10
N	8.7850413151207	9.4206906085338	6.698310064144378e-11
B	8.785093855964309	10.869945581638094	1.8990467932696478e-11
B	10.039906132961205	-5.4441185764808554e-05	-3.329497268186204e-11
N	10.039958697361461	2.89869062287654	3.445779134683244e-11
B	10.039905992085464	4.347945558816217	7.203733306207959e-12
N	10.039958661931891	7.246690622645448	-6.256679142272918e-11
B	10.039905892100618	8.69594555903198	1.0692359164904827e-10
N	10.040041339144812	11.59469062267974	7.122645348364976e-11
N	11.294958671794854	0.7246906000685334	-1.5133790429957622e-10
B	11.294906121493336	2.1739457070651813	5.966338171047206e-11
N	11.29495870676747	5.072690660785765	9.66816651772696e-12
B	11.29490614413176	6.521945441758981	1.1795037989371094e-10
N	11.294958672001503	9.420690600023262	2.599723145583595e-11
B	11.294906156678692	10.869945573512682	-3.0146094525008932e-12
B	12.550093836061155	-5.441814967541654e-05	-6.601632711388842e-12
N	12.549958643647106	2.898690539041484	1.513268230464448e-10
B	12.550093999053763	4.3479455815798165	-1.9845266541989377e-11
N	12.55004129302091	7.246690599904272	1.0392920281898068e-10
B	12.550093916970086	8.695945581862379	-9.173024397179144e-11
N	12.550041284416924	11.594690600017646	-1.3569038530704188e-10
N	13.805041337739546	0.7246906226860906	-7.839317608997613e-11
B	13.805093842924762	2.173945573380259	1.1965436304097364e-11
N	13.805041302816289	5.072690683743105	1.2063451429046735e-11
B	13.80509386553029	6.521945419121674	1.4081820082003468e-11
N	13.80504133788354	9.420690622676512	-8.324594405520281e-11
B	13.805093865805205	10.869945558910118	-6.597106595246051e-11
72
Time Step: 20
B	-0.00016681548933995517	-9.700324892406969e-05	3.150504199735518e-10
N	-7.347199550554519e-05	2.8987090993261884	-5.689859572706153e-12
B	-0.00016681529547188837	4.347903494432632	1.0933889930942054e-10
N	-7.348128768773364e-05	7.246709253035605	-1.566592117890675e-10
B	-0.00016717453153061783	8.695903292123381	5.287606314846778e-10
N	-7.353437282201159e-05	11.594709207505279	-8.144916517379542e-11
N	1.2549264736080057	0.7247092272200728	-1.2726142923847563e-10
B	1.2551670007580422	2.173903291541072	2.7596807333023583e-10
N	1.254926549860726	5.072709181152235	-3.3824270706650253e-11
B	1.2548333587282117	6.521903317438506	2.8787736795095954e-10
N	1.2550734572431363	9.420709207441027	-8.747120101953595e-11
B	1.2551670374555712	10.869903317518105	1.0365043083501245e-10
B	2.509833353980742	-9.668206424251015e-05	-2.3491970719901327e-11
N	2.509926577325687	2.8987093616461843	-1.2470486943149689e-10
B	2.5101670349366954	4.347903291185626	-1.591504899869511e-10
N	2.510073351162102	7.246709207409022	1.4372771514774553e-10
B	2.5098331080932392	8.695903291530112	2.0994171286629557e-11
N	2.510073408537635	11.59470925351137	-1.724933553831145e-10
N	3.765073414153276	0.7247092076634802	1.6053536903714863e-10
B	3.7648333543309187	2.1739033176810048	5.848507470302139e-11
N	3.7649263935879502	5.0727092536525396	3.3100922341327805e-11
B	3.764832788020209	6.521903245941536	-1.0054266239197814e-10
N	3.7650732738616206	9.420709207391162	9.761100453769983e-12
B	3.7648334302840816	10.869903291800036	-5.628901082809721e-12
B	5.019833036379511	-9.675407397631175e-05	-2.9505949029861103e-10
N	5.02007339242792	2.898709289674825	5.738041995154052e-11
B	5.019833030267056	4.347903271657232	-7.263938785321983e-11
N	5.019926617559557	7.246709227359073	-3.07426906882824e-10
B	5.019833075692617	8.695903245983267	-1.5141723224725195e-10
N	5.020073329941254	11.594709181473904	-9.261243308584096e-11
N	6.274926535922606	0.7247092272455706	9.053898175854657e-13
B	6.275167072136278	2.1739034947368383	-1.932623609057101e-10
N	6.274926540191894	5.0727092273544505	-1.0100579805618109e-10
B	6.274833143139717	6.521903271641573	6.008344676648074e-11
N	6.2749265981957505	9.420709227390759	1.0346241433860166e-10
B	6.27516707229539	10.869903493946888	1.4054174264950772e-10
B	7.529833071496403	-9.668205406511852e-05	-6.514286180323346e-11
N	7.529926653236737	2.8987093157568298	-1.4902922656277994e-10
B	7.529833214881618	4.347903566216311	-3.6426956531238977e-10
N	7.529926549622748	7.246709181335149	8.401227350451037e-11
B	7.529832819409916	8.695903317860317	9.955842087803554e-11
N	7.529926590797691	11.594709207568053	1.3302671455620432e-12
N	8.785073409495931	0.7247092075773158	7.086898000887665e-11
B	8.785166743919664	2.1739030427497283	5.722732240599738e-11
N	8.785073346978914	5.072709315786812	2.2189715167821867e-10
B	8.785166887624033	6.52190329166	-1.8181321836035232e-10
N	8.785073409291783	9.420709207962226	8.931072044015379e-11
B	8.78516678502793	10.86990331749488	2.5318268038082324e-11
B	10.039833179856341	-9.675453789238238e-05	-4.439275128350314e-11
N	10.03992658125856	2.898709253606312	4.5943339648323446e-11
B	10.039832931493043	4.347903245468446	9.598438277171534e-12
N	10.039926518478133	7.246709253277873	-8.342861410486194e-11
B	10.039832753657572	8.695903245777327	1.4257684649453511e-10
N	10.040073485436897	11.594709253343082	9.497268750320319e-11
N	11.294926549466046	0.7247091815436086	-2.017926663372702e-10
B	11.29483314331761	2.1739035202892594	7.955376571198373e-11
N	11.294926611709544	5.072709289477793	1.2890070452439477e-11
B	11.29483321512208	6.521903068959869	1.572779342584335e-10
N	11.294926549735445	9.420709181465966	3.466530630244014e-11
B	11.294833255555927	10.869903291547523	-4.015044583755196e-12
B	12.550166749618464	-9.668215851993163e-05	-8.786599841878538e-12
N	12.54992649751995	2.898709073156855	2.017767514903803e-10
B	12.550167041230942	4.3479033174944925	-2.646909735647851e-11
N	12.55007338798391	7.246709181289026	1.3857620947925105e-10
B	12.550166893449392	8.695903317888039	-1.2232108227808423e-10
N	12.55007337280188	11.59470918149112	-1.809270213777609e-10
N	13.805073481104207	0.7247092533350897	-1.0453224696213732e-10
B	13.80516674390648	2.17390329135822	1.5949183516642678e-11
N	13.805073418943925	5.072709361793037	1.608435980578009e-11
B	13.80516681557591	6.521902997107706	1.8774926738338184e-11
N	13.805073481290867	9.420709253386725	-1.1100187023433923e-10
B	13.805166816001599	10.86990324556452	-8.795682665395328e-11
72
Time Step: 25
B	-0.00026053567414349016	-0.00015150778721346339	3.9387885261701663e-10
N	-0.0001147201566107276	2.898732923760275	-7.123773398818751e-12
B	-0.00026053545658099	4.347849269417019	1.3669261378463533e-10
N	-0.00011479781155032166	7.2467332043055555	-1.9585385537872026e-10
B	-0.000261033227173924	8.695848993875146	6.610502526729573e-10
N	-0.0001148175584498344	11.59473309267324	-1.0182443349304085e-10
N	1.2548850917882628	0.7247331408346935	-1.5909545918980372e-10
B	1.2552607657452555	2.1738489930947873	3.4501375103490364e-10
N	1.254885277927673	5.072733028638774	-4.228479572493373e-11
B	1.254739763381235	6.52184905646073	3.598888383929913e-10
N	1.2551146970305027	9.42073309265777	-1.0936406855932585e-10
B	1.2552608552526572	10.869849056669759	1.2959574473097154e-10
B	2.50973975216058	-0.0001509428327458882	-2.9367857507843745e-11
N	2.5098852897738273	2.89873337387393	-1.5589360494190307e-10
B	2.51026081903579	4.3478489925948836	-1.9895659954782702e-10
N	2.510114535164655	7.2467330927250835	1.7966174541924072e-10
B	2.5097394041329437	8.695848992899329	2.6242931526780835e-11
N	2.5101146880229406	11.5947332049783	-2.156312576056739e-10
N	3.7651146334856938	0.7247330930279058	2.0068522983840136e-10
B	3.764739752899017	2.173849056774293	7.310979481407771e-11
N	3.7648850066526065	5.0727332051228275	4.138545975225723e-11
B	3.7647388449427943	6.521848881466134	-1.2567898060668792e-10
N	3.7651144144161157	9.420733092658665	1.2204235713439777e-11
B	3.764739907489156	10.86984899326652	-7.023561839541191e-12
B	5.019739229045541	-0.0001511186966360567	-3.688730617775174e-10
N	5.02011463573607	2.898733198109046	7.17324093416616e-11
B	5.019739183427106	4.347848944688478	-9.080691565586787e-11
N	5.019885320357347	7.246733140999771	-3.84301973688818e-10
B	5.019739294128712	8.695848881523915	-1.892902588078793e-10
N	5.020114538164979	11.594733029100206	-1.1576887233277281e-10
N	6.27488518907803	0.7247331409719363	1.1427460963557342e-12
B	6.275260940352845	2.173849270020968	-2.41605976558071e-10
N	6.274885199550098	5.072733141074646	-1.26252294182367e-10
B	6.274739363387183	6.521848944676607	7.512445122867606e-11
N	6.27488528632023	9.420733141198967	1.2933210717066743e-10
B	6.275260940569417	10.869849268955265	1.7570139049466048e-10
B	7.529739314821123	-0.00015094282213422698	-8.144389973915744e-11
N	7.529885475479195	2.8987332619381347	-1.862883964219871e-10
B	7.5297395387097685	4.347849445139212	-4.5539920658441506e-10
N	7.529885277553891	7.246733028839368	1.050239630677384e-10
B	7.52973892102205	8.695849057124057	1.24449264946709e-10
N	7.529885377927195	11.594733092918675	1.6607429377750383e-12
N	8.785114622477769	0.7247330927697816	8.859290875121201e-11
B	8.785260360740237	2.173848604413712	7.154900725470855e-11
N	8.785114524877027	5.072733261976514	2.7740131575547626e-10
B	8.785260585057937	6.521848993187724	-2.2730654270504147e-10
N	8.785114622095927	9.42073309335882	1.1163827151262006e-10
B	8.785260461086933	10.869849056539456	3.1644045966701744e-11
B	10.039739453142943	-0.00015111922991333093	-5.549007116591297e-11
N	10.039885299692887	2.8987332050549717	5.742856043530776e-11
B	10.039739069170086	4.347848880810467	1.1987532790779097e-11
N	10.039885201861448	7.24673320461031	-1.0429577451867322e-10
B	10.03973879126941	8.695848881216966	1.782404390366729e-10
N	10.040114808179952	11.594733204719198	1.1872242311550883e-10
N	11.294885277314577	0.7247330291716008	-2.5225496269290996e-10
B	11.29473936368943	2.1738493329292776	9.944637854412109e-11
N	11.294885374642174	5.072733197742295	1.6111271041330974e-11
B	11.294739539149475	6.521848668439277	1.9661471518775823e-10
N	11.29488527763449	9.420733029010144	4.3335376498786215e-11
B	11.29473963856736	10.869848992908043	-5.011690542027233e-12
B	12.550260405727526	-0.000150942920721198	-1.0958220916056383e-11
N	12.549885192335122	2.8987328599216524	2.522332370658787e-10
B	12.550260865025077	4.347849056652682	-3.310042394968387e-11
N	12.55011462494936	7.246733028787246	1.7322659404989416e-10
B	12.550260630409289	8.695849057174502	-1.5292399473354285e-10
N	12.550114601352236	11.59473302911617	-2.2616923206511918e-10
N	13.805114797661265	0.7247332046924669	-1.306781906282579e-10
B	13.805260360772076	2.1738489926836975	1.9928887853080145e-11
N	13.80511470048149	5.072733374059122	2.0105060055362233e-11
B	13.805260535844454	6.521848492781989	2.3467326066076536e-11
N	13.80511479788173	9.420733204854745	-1.3876404054270594e-10
B	13.805260536499969	10.869848880871272	-1.0993865053905063e-10
72
Time Step: 30
B	-0.00037497172379944354	-0.00021806611033458576	4.727511795770486e-10
N	-0.0001650566644123132	2.8987619996225535	-8.56531056814607e-12
B	-0.00037497150482982333	4.347783052446095	1.6405898904037335e-10
N	-0.000165279492717211	7.246762474510426	-2.3506840917820304e-10
B	-0.0003755767681121838	8.695782726961758	7.934061723024329e-10
N	-0.00016519681042712116	11.594762242659677	-1.2220835227813386e-10
N	1.2548344913548974	0.7247623424991486	-1.9094193938569905e-10
B	1.2553751986423458	2.1737827259454807	4.140952043202364e-10
N	1.2548348771691498	5.072762110182032	-5.074830108278046e-11
B	1.2546255059893454	6.521782857485856	4.319283961165013e-10
N	1.2551650232500073	9.420762242769511	-1.3127362698154812e-10
B	1.2553753841730433	10.869782857940585	1.5556285551879543e-10
B	2.5096254831089633	-0.00021714149445764357	-3.5245649472441095e-11
N	2.509834839755712	2.8987627185490967	-1.8709069238926803e-10
B	2.5103752751175787	4.347782725261265	-2.387750292473052e-10
N	2.5101647969805514	7.246762243051905	2.1559718744031532e-10
B	2.509625045643959	8.695782725365131	3.1491835670209564e-11
N	2.510165128258723	11.59476247545154	-2.587788752460325e-10
N	3.765164938473744	0.724762243389311	2.408457700883615e-10
B	3.764625484477836	2.1737828578879146	8.77368129948042e-11
N	3.7648344388921053	5.072762475566806	4.967620725792379e-11
B	3.764624136594946	6.521782494349186	-1.5081575686249226e-10
N	3.7651646231503038	9.420762242887333	1.4649280864994105e-11
B	3.7646257703694417	10.86978272585243	-8.409848826809305e-12
B	5.019624682738116	-0.00021750614389916514	-4.4271910906104264e-10
N	5.0201650053019895	2.8987623541232357	8.608898728085823e-11
B	5.019624553568373	4.347782625841635	-1.0897957163443365e-10
N	5.019834826933026	7.246762342685133	-4.6118926822064154e-10
B	5.019624782964386	8.695782494400225	-2.2717575173019324e-10
N	5.02016486489779	11.5947621108241	-1.3892752218226846e-10
N	6.2748346313238486	0.7247623428474465	1.3874420871394557e-12
B	6.275375560904756	2.17378305354829	-2.8996827265831316e-10
N	6.274834653068697	5.0727623428977395	-1.5149548766443353e-10
B	6.274624819150652	6.521782625848336	9.017889381781975e-11
N	6.274834771245507	9.420762343194067	1.5520452208382607e-10
B	6.275375561160885	10.869783052166198	2.1087717471331694e-10
B	7.5296248604268285	-0.0002171414832288474	-9.775514287288474e-11
N	7.529835225030537	2.8987624866283426	-2.2354879444834221e-10
B	7.529625182576638	4.34778341714681	-5.465703019048142e-10
N	7.529834876580833	7.2467621103893425	1.2604138820903284e-10
B	7.5296242935732	8.695782858500417	1.493409340271856e-10
N	7.529835084567947	11.594762243258772	1.9898247413360444e-12
N	8.785164915976544	0.7247622428135871	1.0632128917971082e-10
B	8.785374608903867	2.1737821663128267	8.588057456990763e-11
N	8.785164775539094	5.072762486650261	3.329253819303376e-10
B	8.785374931592942	6.52178272595524	-2.72826539881416e-10
N	8.78516491529104	9.420762243691886	1.339657369271331e-10
B	8.785374816973425	10.869782857619924	3.7967292608970134e-11
B	10.039625005323572	-0.00021750667145136604	-6.658682883849695e-11
N	10.039834860595718	2.898762475466202	6.891337187985213e-11
B	10.039624459547952	4.347782493460955	1.4369607730243726e-11
N	10.039834720081227	7.2467624748747115	-1.2516960903810513e-10
B	10.03962405940941	8.695782493964035	2.1391695694226806e-10
N	10.040165301218662	11.594762475045785	1.4247653821822492e-10
N	11.294834876247764	0.7247621109039749	-3.027266727843659e-10
B	11.294624819627218	2.1737831845208286	1.1934178833720602e-10
N	11.294835016478789	5.072762353471305	1.9331589953032998e-11
B	11.294625183408577	6.5217822991394465	2.3596303281227515e-10
N	11.294834876597239	9.420762110570688	5.200793755047882e-11
B	11.294625390220759	10.869782725363182	-6.003614980383144e-12
B	12.550374737206033	-0.0002171415646110088	-1.311316657425442e-11
N	12.549834747170815	2.8987618672986386	3.0269791467049345e-10
B	12.550375404982749	4.347782857913233	-3.974112359819438e-11
N	12.550164983008969	7.246762110335153	2.0788120298055023e-10
B	12.550375060625058	8.69578285859239	-1.8354199582018e-10
N	12.550164949178555	11.594762110842531	-2.7141840684414133e-10
N	13.805165279426369	0.7247624750026948	-1.568327318058093e-10
B	13.805374609039372	2.173782725171453	2.3903554485774005e-11
N	13.805165139458557	5.072762718767193	2.4125499378968527e-11
B	13.805374971929723	6.521781934802594	2.815884996223903e-11
N	13.805165279668454	9.420762475334293	-1.6653402314452864e-10
B	13.805374972944826	10.86978249342864	-1.3191555517843715e-10
72
Time Step: 35
B	-0.0005100573203454763	-0.00029664332746373503	5.516761890123794e-10
N	-0.00022443496593065848	2.898796301278224	-1.001598652017708e-11
B	-0.0005100571104181195	4.347704878271753	1.9144055827029756e-10
N	-0.0002249165533223462	7.246797061490314	-2.7430687167400177e-10
B	-0.0005107020096084769	8.69570454972239	9.258416398742912e-10
N	-0.00022462552886199074	11.594796631767792	-1.42602650770467e-10
N	1.254774658776648	0.7247968165806958	-2.2280336170644408e-10
B	1.2555101986307684	2.1737045484028505	4.832195910745076e-10
N	1.2547753730803177	5.072796386681983	-5.921539160471482e-11
B	1.254490668290283	6.521704792249583	5.040016602576733e-10
N	1.255224389319994	9.420796632127855	-1.5320319392935238e-10
B	1.2555105422765105	10.869704793127397	1.8155611540529165e-10
B	2.5094906263028434	-0.0002952062377462175	-4.112570349889515e-11
N	2.509775234818177	2.8987973935044518	-2.1829780865959293e-10
B	2.5105103022401742	4.3477045475015	-2.786082385917451e-10
N	2.5102240922823142	7.246796632792426	2.5153433429464545e-10
B	2.5094901333324398	8.695704547151228	3.674091146162467e-11
N	2.5102247217690046	11.594797062803718	-3.019381578820686e-10
N	3.7652242847960995	0.7247966331487998	2.8101912612794613e-10
B	3.764490628652188	2.1737047927796853	1.0236658597252148e-10
N	3.76477470006038	5.07279706283625	5.797441242212685e-11
B	3.7644887293635887	6.521704119530981	-1.7595310569574978e-10
N	3.7652238557520583	9.42079663245991	1.7096621010998328e-11
B	3.7644911196221957	10.869704547787252	-9.78608983011085e-12
B	5.0194894615213945	-0.00029588159450539143	-5.166041372224132e-10
N	5.020224477908504	2.8987967186054973	1.0045107043353422e-10
B	5.0194891836205215	4.347704363470668	-1.2715838903130263e-10
N	5.019775125903968	7.246796816776927	-5.380912370307724e-10
B	5.019489608462799	8.695704119526377	-2.65076191690886e-10
N	5.020224286953283	11.594796387549165	-1.620888147304517e-10
N	6.274774849088361	0.7247968172741043	1.6409462389104474e-12
B	6.275510869610089	2.1737048801587133	-3.3835298216470965e-10
N	6.274774889386362	5.072796817200209	-1.7673471759603915e-10
B	6.274489555564732	6.5217043635605725	1.0524947176336851e-10
N	6.274775039363822	9.420796817792908	1.8108019942075868e-10
B	6.275510869869576	10.869704878412684	2.460723175318894e-10
B	7.529489790138627	-0.0002952062365655581	-1.1407862250214361e-10
N	7.52977594846056	2.8987969642263853	-2.608106523366942e-10
B	7.529490228231865	4.347705553986882	-6.377910963901436e-10
N	7.529775372160012	7.2467963868836245	1.470656842114971e-10
B	7.52948901898768	8.695704793769382	1.7423359223766415e-10
N	7.5297757572972195	11.59479663297909	2.3172337608702352e-12
N	8.785224243425107	0.7247966320413268	1.2405500751409498e-10
B	8.785509385404108	2.1737037867694893	1.0022398056900413e-10
N	8.785224052419375	5.072796964179686	3.884733153812885e-10
B	8.785509824126416	6.521704548256781	-3.1837853755063254e-10